 Entering Link 1 = C:\G03W\l1.exe PID=      3316.
  
 Copyright (c) 1988,1990,1992,1993,1995,1998,2003, Gaussian, Inc.
                  All Rights Reserved.
  
 This is the Gaussian(R) 03 program.  It is based on the
 the Gaussian(R) 98 system (copyright 1998, Gaussian, Inc.),
 the Gaussian(R) 94 system (copyright 1995, Gaussian, Inc.),
 the Gaussian 92(TM) system (copyright 1992, Gaussian, Inc.),
 the Gaussian 90(TM) system (copyright 1990, Gaussian, Inc.),
 the Gaussian 88(TM) system (copyright 1988, Gaussian, Inc.),
 the Gaussian 86(TM) system (copyright 1986, Carnegie Mellon
 University), and the Gaussian 82(TM) system (copyright 1983,
 Carnegie Mellon University). Gaussian is a federally registered
 trademark of Gaussian, Inc.
  
 This software contains proprietary and confidential information,
 including trade secrets, belonging to Gaussian, Inc.
  
 This software is provided under written license and may be
 used, copied, transmitted, or stored only in accord with that
 written license.
  
 The following legend is applicable only to US Government
 contracts under DFARS:
  
                    RESTRICTED RIGHTS LEGEND
  
 Use, duplication or disclosure by the US Government is subject
 to restrictions as set forth in subparagraph (c)(1)(ii) of the
 Rights in Technical Data and Computer Software clause at DFARS
 252.227-7013.
  
 Gaussian, Inc.
 Carnegie Office Park, Building 6, Pittsburgh, PA 15106 USA
  
 The following legend is applicable only to US Government
 contracts under FAR:
  
                    RESTRICTED RIGHTS LEGEND
  
 Use, reproduction and disclosure by the US Government is subject
 to restrictions as set forth in subparagraph (c) of the
 Commercial Computer Software - Restricted Rights clause at FAR
 52.227-19.
  
 Gaussian, Inc.
 Carnegie Office Park, Building 6, Pittsburgh, PA 15106 USA
  
  
 ---------------------------------------------------------------
 Warning -- This program may not be used in any manner that
 competes with the business of Gaussian, Inc. or will provide
 assistance to any competitor of Gaussian, Inc.  The licensee
 of this program is prohibited from giving any competitor of
 Gaussian, Inc. access to this program.  By using this program,
 the user acknowledges that Gaussian, Inc. is engaged in the
 business of creating and licensing software in the field of
 computational chemistry and represents and warrants to the
 licensee that it is not a competitor of Gaussian, Inc. and that
 it will not use this program in any manner prohibited above.
 ---------------------------------------------------------------
  

 Cite this work as:
 Gaussian 03, Revision B.03,
 M. J. Frisch, G. W. Trucks, H. B. Schlegel, G. E. Scuseria, 
 M. A. Robb, J. R. Cheeseman, J. A. Montgomery, Jr., T. Vreven, 
 K. N. Kudin, J. C. Burant, J. M. Millam, S. S. Iyengar, J. Tomasi, 
 V. Barone, B. Mennucci, M. Cossi, G. Scalmani, N. Rega, 
 G. A. Petersson, H. Nakatsuji, M. Hada, M. Ehara, K. Toyota, 
 R. Fukuda, J. Hasegawa, M. Ishida, T. Nakajima, Y. Honda, O. Kitao, 
 H. Nakai, M. Klene, X. Li, J. E. Knox, H. P. Hratchian, J. B. Cross, 
 C. Adamo, J. Jaramillo, R. Gomperts, R. E. Stratmann, O. Yazyev, 
 A. J. Austin, R. Cammi, C. Pomelli, J. W. Ochterski, P. Y. Ayala, 
 K. Morokuma, G. A. Voth, P. Salvador, J. J. Dannenberg, 
 V. G. Zakrzewski, S. Dapprich, A. D. Daniels, M. C. Strain, 
 O. Farkas, D. K. Malick, A. D. Rabuck, K. Raghavachari, 
 J. B. Foresman, J. V. Ortiz, Q. Cui, A. G. Baboul, S. Clifford, 
 J. Cioslowski, B. B. Stefanov, G. Liu, A. Liashenko, P. Piskorz, 
 I. Komaromi, R. L. Martin, D. J. Fox, T. Keith, M. A. Al-Laham, 
 C. Y. Peng, A. Nanayakkara, M. Challacombe, P. M. W. Gill, 
 B. Johnson, W. Chen, M. W. Wong, C. Gonzalez, and J. A. Pople, 
 Gaussian, Inc., Pittsburgh PA, 2003.
 
 *********************************************
 Gaussian 03:  x86-Win32-G03RevB.03 4-May-2003
                  19-Jun-2017 
 *********************************************
 % Chk=H2S+-3-21g
 Default route:  MaxDisk=2000MB
 ---------------------
 # rohf/3-21g pop=full
 ---------------------
 1/38=1/1;
 2/17=6,18=5,40=1/2;
 3/5=5,11=2,16=1,25=1,30=1/1,2,3;
 4/7=6/1;
 5/5=2,32=1,38=5/2;
 6/7=3,28=1/1;
 99/5=1,9=1/99;
 --------------------
 RHF en 3-21g de H2S+
 --------------------
 Symbolic Z-matrix:
 Charge =  1 Multiplicity = 2
 S1
 H2                   1     1.336 
 H3                   1     1.336    2     92.11 
 
                          Input orientation:                          
 ---------------------------------------------------------------------
 Center     Atomic     Atomic              Coordinates (Angstroms)
 Number     Number      Type              X           Y           Z
 ---------------------------------------------------------------------
    1         16             0        0.000000    0.000000    0.000000
    2          1             0        0.000000    0.000000    1.336000
    3          1             0        1.335094    0.000000   -0.049189
 ---------------------------------------------------------------------
                    Distance matrix (angstroms):
                    1          2          3
     1  S    0.000000
     2  H    1.336000   0.000000
     3  H    1.336000   1.923857   0.000000
 Stoichiometry    H2S(1+,2)
 Framework group  C2V[C2(S),SGV(H2)]
 Deg. of freedom     2
 Full point group                 C2V     NOp   4
 Largest Abelian subgroup         C2V     NOp   4
 Largest concise Abelian subgroup C2      NOp   2
                         Standard orientation:                         
 ---------------------------------------------------------------------
 Center     Atomic     Atomic              Coordinates (Angstroms)
 Number     Number      Type              X           Y           Z
 ---------------------------------------------------------------------
    1         16             0        0.000000    0.000000    0.103016
    2          1             0        0.000000    0.961928   -0.824125
    3          1             0        0.000000   -0.961928   -0.824125
 ---------------------------------------------------------------------
 Rotational constants (GHZ):    310.0716863    270.9670960    144.6017494
 Standard basis: 3-21G (6D, 7F)
 There are     9 symmetry adapted basis functions of A1  symmetry.
 There are     0 symmetry adapted basis functions of A2  symmetry.
 There are     3 symmetry adapted basis functions of B1  symmetry.
 There are     5 symmetry adapted basis functions of B2  symmetry.
 Integral buffers will be    262144 words long.
 Raffenetti 2 integral format.
 Two-electron integral symmetry is turned on.
    17 basis functions,    33 primitive gaussians,    17 cartesian basis functions
     9 alpha electrons        8 beta electrons
       nuclear repulsion energy        12.9499637920 Hartrees.
 NAtoms=    3 NActive=    3 NUniq=    2 SFac= 2.76D+00 NAtFMM=   60 Big=F
 One-electron integrals computed using PRISM.
 NBasis=    17 RedAO= T  NBF=     9     0     3     5
 NBsUse=    17 1.00D-06 NBFU=     9     0     3     5
 Harris functional with IExCor=  205 diagonalized for initial guess.
 ExpMin= 1.42D-01 ExpMax= 1.21D+03 ExpMxC= 1.21D+03 IAcc=1 IRadAn=         1 AccDes= 1.00D-06
 HarFok:  IExCor= 205 AccDes= 1.00D-06 IRadAn=         1 IDoV=1
 ScaDFX=  1.000000  1.000000  1.000000  1.000000
 Initial guess orbital symmetries:
       Occupied  (A1) (A1) (B2) (A1) (B1) (A1) (B2) (A1) (B1)
       Virtual   (B2) (A1) (B2) (A1) (B1) (A1) (A1) (B2)
 The electronic state of the initial guess is 2-B1.
 Warning!  Cutoffs for single-point calculations used.
 Requested convergence on RMS density matrix=1.00D-04 within 128 cycles.
 Requested convergence on MAX density matrix=1.00D-02.
 Requested convergence on             energy=5.00D-05.
 No special actions if energy rises.
 Keep R1 and R2 integrals in memory in canonical form, NReq=      445113.
 SCF Done:  E(ROHF) =  -396.347795678     A.U. after    6 cycles
             Convg  =    0.3995D-04             -V/T =  2.0002
             S**2   =   0.7500
 Annihilation of the first spin contaminant:
 S**2 before annihilation     0.7500,   after     0.7500

 **********************************************************************

            Population analysis using the SCF density.

 **********************************************************************

 Orbital symmetries:
       Occupied  (A1) (A1) (B2) (A1) (B1) (A1) (B2) (A1) (B1)
       Virtual   (B2) (A1) (B2) (A1) (B1) (A1) (A1) (B2)
 The electronic state is 2-B1.
 Alpha  occ. eigenvalues --  -91.71312  -9.31514  -6.98801  -6.98609  -6.97929
 Alpha  occ. eigenvalues --   -1.33535  -0.92059  -0.82232  -0.37217
 Alpha virt. eigenvalues --   -0.11211  -0.07766   0.35903   0.35979   0.37147
 Alpha virt. eigenvalues --    0.38647   0.85514   0.89874
     Molecular Orbital Coefficients
                           1         2         3         4         5
                        (A1)--O   (A1)--O   (B2)--O   (A1)--O   (B1)--O
     EIGENVALUES --   -91.71312  -9.31514  -6.98801  -6.98609  -6.97929
   1 1   S  1S          0.98644  -0.30128   0.00000  -0.00508   0.00000
   2        2S          0.05117   0.98875   0.00000   0.01761   0.00000
   3        2PX         0.00000   0.00000   0.00000   0.00000   0.97358
   4        2PY         0.00000   0.00000   0.97344   0.00000   0.00000
   5        2PZ        -0.00022  -0.01464   0.00000   0.97361   0.00000
   6        3S         -0.01708   0.13153   0.00000  -0.00476   0.00000
   7        3PX         0.00000   0.00000   0.00000   0.00000   0.08270
   8        3PY         0.00000   0.00000   0.08349   0.00000   0.00000
   9        3PZ         0.00048  -0.00582   0.00000   0.08273   0.00000
  10        4S          0.01117  -0.07029   0.00000   0.01266   0.00000
  11        4PX         0.00000   0.00000   0.00000   0.00000  -0.02338
  12        4PY         0.00000   0.00000  -0.02937   0.00000   0.00000
  13        4PZ        -0.00228   0.01582   0.00000  -0.03033   0.00000
  14 2   H  1S          0.00090  -0.00463  -0.00489   0.00428   0.00000
  15        2S         -0.00286   0.01821   0.00879  -0.00993   0.00000
  16 3   H  1S          0.00090  -0.00463   0.00489   0.00428   0.00000
  17        2S         -0.00286   0.01821  -0.00879  -0.00993   0.00000
                           6         7         8         9        10
                        (A1)--O   (B2)--O   (A1)--O   (B1)--O   (B2)--V
     EIGENVALUES --    -1.33535  -0.92059  -0.82232  -0.37217  -0.11211
   1 1   S  1S          0.07106   0.00000   0.03206   0.00000   0.00000
   2        2S         -0.40632   0.00000  -0.18925   0.00000   0.00000
   3        2PX         0.00000   0.00000   0.00000  -0.29384   0.00000
   4        2PY         0.00000  -0.22654   0.00000   0.00000  -0.16648
   5        2PZ         0.06773   0.00000  -0.23715   0.00000   0.00000
   6        3S          0.54579   0.00000   0.26379   0.00000   0.00000
   7        3PX         0.00000   0.00000   0.00000   0.66291   0.00000
   8        3PY         0.00000   0.49570   0.00000   0.00000   0.37046
   9        3PZ        -0.14323   0.00000   0.52007   0.00000   0.00000
  10        4S          0.39653   0.00000   0.32897   0.00000   0.00000
  11        4PX         0.00000   0.00000   0.00000   0.47148   0.00000
  12        4PY         0.00000   0.19102   0.00000   0.00000   1.04755
  13        4PZ        -0.06271   0.00000   0.30981   0.00000   0.00000
  14 2   H  1S          0.13890   0.22716  -0.14002   0.00000  -0.17482
  15        2S          0.03657   0.23101  -0.14908   0.00000  -0.99808
  16 3   H  1S          0.13890  -0.22716  -0.14002   0.00000   0.17482
  17        2S          0.03657  -0.23101  -0.14908   0.00000   0.99808
                          11        12        13        14        15
                        (A1)--V   (B2)--V   (A1)--V   (B1)--V   (A1)--V
     EIGENVALUES --    -0.07766   0.35903   0.35979   0.37147   0.38647
   1 1   S  1S         -0.03302   0.00000  -0.05825   0.00000  -0.00669
   2        2S          0.20478   0.00000   0.29883   0.00000   0.04735
   3        2PX         0.00000   0.00000   0.00000   0.32846   0.00000
   4        2PY         0.00000   0.30947   0.00000   0.00000   0.00000
   5        2PZ        -0.14457   0.00000   0.02407   0.00000   0.31014
   6        3S         -0.28785   0.00000  -2.01578   0.00000   0.04944
   7        3PX         0.00000   0.00000   0.00000  -1.19842   0.00000
   8        3PY         0.00000  -1.15512   0.00000   0.00000   0.00000
   9        3PZ         0.34583   0.00000  -0.01437   0.00000  -1.17119
  10        4S         -1.19855   0.00000   2.97155   0.00000  -0.53097
  11        4PX         0.00000   0.00000   0.00000   1.21808   0.00000
  12        4PY         0.00000   1.35053   0.00000   0.00000   0.00000
  13        4PZ         1.01967   0.00000  -0.82268   0.00000   1.57846
  14 2   H  1S          0.11788  -0.18803  -0.16767   0.00000   0.16553
  15        2S          1.22509  -0.06289  -0.84766   0.00000   0.34470
  16 3   H  1S          0.11788   0.18803  -0.16767   0.00000   0.16553
  17        2S          1.22509   0.06289  -0.84766   0.00000   0.34470
                          16        17
                        (A1)--V   (B2)--V
     EIGENVALUES --     0.85514   0.89874
   1 1   S  1S         -0.02146   0.00000
   2        2S          0.11723   0.00000
   3        2PX         0.00000   0.00000
   4        2PY         0.00000  -0.15513
   5        2PZ        -0.14120   0.00000
   6        3S         -0.53973   0.00000
   7        3PX         0.00000   0.00000
   8        3PY         0.00000   0.48111
   9        3PZ         0.43265   0.00000
  10        4S          1.44084   0.00000
  11        4PX         0.00000   0.00000
  12        4PY         0.00000  -0.86949
  13        4PZ        -0.80812   0.00000
  14 2   H  1S          0.89151  -0.91137
  15        2S         -1.30467   1.30995
  16 3   H  1S          0.89151   0.91137
  17        2S         -1.30467  -1.30995
     ALPHA DENSITY MATRIX.
                           1         2         3         4         5
   1 1   S  1S          1.06994
   2        2S         -0.28245   1.18146
   3        2PX         0.00000   0.00000   1.03420
   4        2PY         0.00000   0.00000   0.00000   0.99891
   5        2PZ        -0.00354   0.02002   0.00000   0.00000   1.00895
   6        3S         -0.00921  -0.14259   0.00000   0.00000  -0.03214
   7        3PX         0.00000   0.00000  -0.11427   0.00000   0.00000
   8        3PY         0.00000   0.00000   0.00000  -0.03102   0.00000
   9        3PZ         0.00831  -0.04450   0.00000   0.00000  -0.05240
  10        4S          0.07085  -0.29208   0.00000   0.00000  -0.03780
  11        4PX         0.00000   0.00000  -0.16131   0.00000   0.00000
  12        4PY         0.00000   0.00000   0.00000  -0.07186   0.00000
  13        4PZ        -0.00139  -0.01816   0.00000   0.00000  -0.10748
  14 2   H  1S          0.00764  -0.03440   0.00000  -0.05622   0.04685
  15        2S         -0.01044   0.03104   0.00000  -0.04378   0.02790
  16 3   H  1S          0.00764  -0.03440   0.00000   0.05622   0.04685
  17        2S         -0.01044   0.03104   0.00000   0.04378   0.02790
                           6         7         8         9        10
   6        3S          0.38509
   7        3PX         0.00000   0.44628
   8        3PY         0.00000   0.00000   0.25269
   9        3PZ         0.05785   0.00000   0.00000   0.29787
  10        4S          0.29371   0.00000   0.00000   0.11576   0.27068
  11        4PX         0.00000   0.31061   0.00000   0.00000   0.00000
  12        4PY         0.00000   0.00000   0.09224   0.00000   0.00000
  13        4PZ         0.04976   0.00000   0.00000   0.16751   0.07553
  14 2   H  1S          0.03823   0.00000   0.11219  -0.09233   0.00941
  15        2S         -0.01688   0.00000   0.11525  -0.08370  -0.03598
  16 3   H  1S          0.03823   0.00000  -0.11219  -0.09233   0.00941
  17        2S         -0.01688   0.00000  -0.11525  -0.08370  -0.03598
                          11        12        13        14        15
  11        4PX         0.22284
  12        4PY         0.00000   0.03735
  13        4PZ         0.00000   0.00000   0.10109
  14 2   H  1S          0.00000   0.04353  -0.05230   0.09056
  15        2S          0.00000   0.04387  -0.04789   0.07826   0.07744
  16 3   H  1S          0.00000  -0.04353  -0.05230  -0.01268  -0.02661
  17        2S          0.00000  -0.04387  -0.04789  -0.02661  -0.02944
                          16        17
  16 3   H  1S          0.09056
  17        2S          0.07826   0.07744
     BETA DENSITY MATRIX.
                           1         2         3         4         5
   1 1   S  1S          1.06994
   2        2S         -0.28245   1.18146
   3        2PX         0.00000   0.00000   0.94786
   4        2PY         0.00000   0.00000   0.00000   0.99891
   5        2PZ        -0.00354   0.02002   0.00000   0.00000   1.00895
   6        3S         -0.00921  -0.14259   0.00000   0.00000  -0.03214
   7        3PX         0.00000   0.00000   0.08052   0.00000   0.00000
   8        3PY         0.00000   0.00000   0.00000  -0.03102   0.00000
   9        3PZ         0.00831  -0.04450   0.00000   0.00000  -0.05240
  10        4S          0.07085  -0.29208   0.00000   0.00000  -0.03780
  11        4PX         0.00000   0.00000  -0.02277   0.00000   0.00000
  12        4PY         0.00000   0.00000   0.00000  -0.07186   0.00000
  13        4PZ        -0.00139  -0.01816   0.00000   0.00000  -0.10748
  14 2   H  1S          0.00764  -0.03440   0.00000  -0.05622   0.04685
  15        2S         -0.01044   0.03104   0.00000  -0.04378   0.02790
  16 3   H  1S          0.00764  -0.03440   0.00000   0.05622   0.04685
  17        2S         -0.01044   0.03104   0.00000   0.04378   0.02790
                           6         7         8         9        10
   6        3S          0.38509
   7        3PX         0.00000   0.00684
   8        3PY         0.00000   0.00000   0.25269
   9        3PZ         0.05785   0.00000   0.00000   0.29787
  10        4S          0.29371   0.00000   0.00000   0.11576   0.27068
  11        4PX         0.00000  -0.00193   0.00000   0.00000   0.00000
  12        4PY         0.00000   0.00000   0.09224   0.00000   0.00000
  13        4PZ         0.04976   0.00000   0.00000   0.16751   0.07553
  14 2   H  1S          0.03823   0.00000   0.11219  -0.09233   0.00941
  15        2S         -0.01688   0.00000   0.11525  -0.08370  -0.03598
  16 3   H  1S          0.03823   0.00000  -0.11219  -0.09233   0.00941
  17        2S         -0.01688   0.00000  -0.11525  -0.08370  -0.03598
                          11        12        13        14        15
  11        4PX         0.00055
  12        4PY         0.00000   0.03735
  13        4PZ         0.00000   0.00000   0.10109
  14 2   H  1S          0.00000   0.04353  -0.05230   0.09056
  15        2S          0.00000   0.04387  -0.04789   0.07826   0.07744
  16 3   H  1S          0.00000  -0.04353  -0.05230  -0.01268  -0.02661
  17        2S          0.00000  -0.04387  -0.04789  -0.02661  -0.02944
                          16        17
  16 3   H  1S          0.09056
  17        2S          0.07826   0.07744
    Full Mulliken population analysis:
                           1         2         3         4         5
   1 1   S  1S          2.13989
   2        2S         -0.14437   2.36292
   3        2PX         0.00000   0.00000   1.98206
   4        2PY         0.00000   0.00000   0.00000   1.99783
   5        2PZ         0.00000   0.00000   0.00000   0.00000   2.01790
   6        3S         -0.00093  -0.11641   0.00000   0.00000   0.00000
   7        3PX         0.00000   0.00000  -0.01057   0.00000   0.00000
   8        3PY         0.00000   0.00000   0.00000  -0.01943   0.00000
   9        3PZ         0.00000   0.00000   0.00000   0.00000  -0.03281
  10        4S          0.00469  -0.14618   0.00000   0.00000   0.00000
  11        4PX         0.00000   0.00000  -0.01305   0.00000   0.00000
  12        4PY         0.00000   0.00000   0.00000  -0.01019   0.00000
  13        4PZ         0.00000   0.00000   0.00000   0.00000  -0.01524
  14 2   H  1S          0.00001  -0.00066   0.00000  -0.00097  -0.00078
  15        2S         -0.00026   0.00610   0.00000  -0.00212  -0.00130
  16 3   H  1S          0.00001  -0.00066   0.00000  -0.00097  -0.00078
  17        2S         -0.00026   0.00610   0.00000  -0.00212  -0.00130
                           6         7         8         9        10
   6        3S          0.77019
   7        3PX         0.00000   0.45312
   8        3PY         0.00000   0.00000   0.50538
   9        3PZ         0.00000   0.00000   0.00000   0.59574
  10        4S          0.48591   0.00000   0.00000   0.00000   0.54137
  11        4PX         0.00000   0.19434   0.00000   0.00000   0.00000
  12        4PY         0.00000   0.00000   0.11614   0.00000   0.00000
  13        4PZ         0.00000   0.00000   0.00000   0.21091   0.00000
  14 2   H  1S          0.01177   0.00000   0.04435   0.03518   0.00490
  15        2S         -0.01354   0.00000   0.05666   0.03966  -0.04268
  16 3   H  1S          0.01177   0.00000   0.04435   0.03518   0.00490
  17        2S         -0.01354   0.00000   0.05666   0.03966  -0.04268
                          11        12        13        14        15
  11        4PX         0.22338
  12        4PY         0.00000   0.07470
  13        4PZ         0.00000   0.00000   0.20219
  14 2   H  1S          0.00000   0.02668   0.03089   0.18113
  15        2S          0.00000   0.04017   0.04226   0.10109   0.15489
  16 3   H  1S          0.00000   0.02668   0.03089  -0.00009  -0.00467
  17        2S          0.00000   0.04017   0.04226  -0.00467  -0.01755
                          16        17
  16 3   H  1S          0.18113
  17        2S          0.10109   0.15489
     Gross orbital populations:
                         TOTAL     ALPHA     BETA      SPIN
   1 1   S  1S          1.99878   0.99939   0.99939   0.00000
   2        2S          1.96684   0.98342   0.98342   0.00000
   3        2PX         1.95844   0.98699   0.97145   0.01553
   4        2PY         1.96203   0.98101   0.98101   0.00000
   5        2PZ         1.96569   0.98284   0.98284   0.00000
   6        3S          1.13521   0.56761   0.56761   0.00000
   7        3PX         0.63689   0.60606   0.03083   0.57523
   8        3PY         0.80411   0.40206   0.40206   0.00000
   9        3PZ         0.92352   0.46176   0.46176   0.00000
  10        4S          0.81023   0.40512   0.40512   0.00000
  11        4PX         0.40467   0.40695  -0.00229   0.40924
  12        4PY         0.31434   0.15717   0.15717   0.00000
  13        4PZ         0.54415   0.27208   0.27208   0.00000
  14 2   H  1S          0.42883   0.21441   0.21441   0.00000
  15        2S          0.35871   0.17936   0.17936   0.00000
  16 3   H  1S          0.42883   0.21441   0.21441   0.00000
  17        2S          0.35871   0.17936   0.17936   0.00000
          Condensed to atoms (all electrons):
              1          2          3
     1  S   14.872284   0.276313   0.276313
     2  H    0.276313   0.538203  -0.026972
     3  H    0.276313  -0.026972   0.538203
 Mulliken atomic charges:
              1
     1  S    0.575089
     2  H    0.212455
     3  H    0.212455
 Sum of Mulliken charges=   1.00000
 Atomic charges with hydrogens summed into heavy atoms:
              1
     1  S    1.000000
     2  H    0.000000
     3  H    0.000000
 Sum of Mulliken charges=   1.00000
          Atomic-Atomic Spin Densities.
              1          2          3
     1  S    1.000000   0.000000   0.000000
     2  H    0.000000   0.000000   0.000000
     3  H    0.000000   0.000000   0.000000
 Mulliken atomic spin densities:
              1
     1  S    1.000000
     2  H    0.000000
     3  H    0.000000
 Sum of Mulliken spin densities=   1.00000
 Electronic spatial extent (au):  <R**2>=    36.1443
 Charge=     1.0000 electrons
 Dipole moment (field-independent basis, Debye):
    X=     0.0000    Y=     0.0000    Z=    -2.2262  Tot=     2.2262
 Quadrupole moment (field-independent basis, Debye-Ang):
   XX=   -11.5249   YY=    -9.6880   ZZ=   -11.1735
   XY=     0.0000   XZ=     0.0000   YZ=     0.0000
 Traceless Quadrupole moment (field-independent basis, Debye-Ang):
   XX=    -0.7294   YY=     1.1075   ZZ=    -0.3781
   XY=     0.0000   XZ=     0.0000   YZ=     0.0000
 Octapole moment (field-independent basis, Debye-Ang**2):
  XXX=     0.0000  YYY=     0.0000  ZZZ=    -2.2939  XYY=     0.0000
  XXY=     0.0000  XXZ=    -0.2875  XZZ=     0.0000  YZZ=     0.0000
  YYZ=    -1.6773  XYZ=     0.0000
 Hexadecapole moment (field-independent basis, Debye-Ang**3):
 XXXX=   -12.3327 YYYY=   -17.3690 ZZZZ=   -19.2498 XXXY=     0.0000
 XXXZ=     0.0000 YYYX=     0.0000 YYYZ=     0.0000 ZZZX=     0.0000
 ZZZY=     0.0000 XXYY=    -5.3021 XXZZ=    -5.4844 YYZZ=    -5.0330
 XXYZ=     0.0000 YYXZ=     0.0000 ZZXY=     0.0000
 N-N= 1.294996379203D+01 E-N=-9.638657810241D+02  KE= 3.962711330319D+02
 Symmetry A1   KE= 3.218113976593D+02
 Symmetry A2   KE= 0.000000000000D+00
 Symmetry B1   KE= 3.676619126277D+01
 Symmetry B2   KE= 3.769354410978D+01
 Orbital energies and kinetic energies (alpha):
                           1         2
       1  (A1)--O     -91.71312 120.25650
       2  (A1)--O      -9.31514  19.18421
       3  (B2)--O      -6.98801  17.34185
       4  (A1)--O      -6.98609  17.35169
       5  (B1)--O      -6.97929  17.34500
       6  (A1)--O      -1.33535   2.20509
       7  (B2)--O      -0.92059   1.50493
       8  (A1)--O      -0.82232   1.90821
       9  (B1)--O      -0.37217   2.07619
      10  (B2)--V      -0.11211   1.16628
      11  (A1)--V      -0.07766   1.40998
      12  (B2)--V       0.35903   2.48641
      13  (A1)--V       0.35979   2.09624
      14  (B1)--V       0.37147   2.69007
      15  (A1)--V       0.38647   2.51999
      16  (A1)--V       0.85514   2.65431
      17  (B2)--V       0.89874   2.51161
 Total kinetic energy from orbitals= 3.983473230595D+02
                          Isotropic Fermi Contact Couplings
        Atom                 a.u.       MegaHertz       Gauss      10(-4) cm-1
     1  S(33)              0.00000       0.00000       0.00000       0.00000
     2  H(1)               0.00000       0.00000       0.00000       0.00000
     3  H(1)               0.00000       0.00000       0.00000       0.00000
 --------------------------------------------------------
       Center         ----  Spin Dipole Couplings  ----
                      3XX-RR        3YY-RR        3ZZ-RR
 --------------------------------------------------------
     1   Atom        4.243910     -2.121955     -2.121955
     2   Atom       -0.003175      0.003073      0.000103
     3   Atom       -0.003175      0.003073      0.000103
 --------------------------------------------------------
                        XY            XZ            YZ
 --------------------------------------------------------
     1   Atom        0.000000      0.000000      0.000000
     2   Atom        0.000000      0.000000     -0.040308
     3   Atom        0.000000      0.000000      0.040308
 --------------------------------------------------------


 ---------------------------------------------------------------------------------
              Anisotropic Spin Dipole Couplings in Principal Axis System
 ---------------------------------------------------------------------------------

       Atom             a.u.   MegaHertz   Gauss  10(-4) cm-1        Axes

              Baa    -2.1220   -86.998   -31.043   -29.019  0.0000  1.0000  0.0000
     1 S(33)  Bbb    -2.1220   -86.998   -31.043   -29.019  0.0000  0.0000  1.0000
              Bcc     4.2439   173.996    62.086    58.039  1.0000  0.0000  0.0000
 
              Baa    -0.0387   -20.674    -7.377    -6.896  0.0000  0.6940  0.7200
     2 H(1)   Bbb    -0.0032    -1.694    -0.605    -0.565  1.0000  0.0000  0.0000
              Bcc     0.0419    22.368     7.981     7.461  0.0000  0.7200 -0.6940
 
              Baa    -0.0387   -20.674    -7.377    -6.896  0.0000 -0.6940  0.7200
     3 H(1)   Bbb    -0.0032    -1.694    -0.605    -0.565  1.0000  0.0000  0.0000
              Bcc     0.0419    22.368     7.981     7.461  0.0000  0.7200  0.6940
 

 ---------------------------------------------------------------------------------

 1|1|UNPC-UNK|SP|ROHF|3-21G|H2S1(1+,2)|PCUSER|19-Jun-2017|0||# ROHF/3-2
 1G POP=FULL||RHF en 3-21g de H2S+||1,2|S|H,1,1.336|H,1,1.336,2,92.11||
 Version=x86-Win32-G03RevB.03|State=2-B1|HF=-396.3477957|RMSD=3.995e-00
 5|Dipole=0.6306226,0.,0.6078164|PG=C02V [C2(S1),SGV(H2)]||@


 A MUSTACHE HAIR ACROSS A CHIP IS LIKE A REDWOOD
 TREE FALLING THROUGH A HOUSING PROJECT.
 - AN IBM MANAGER IN EAST FISHKILL, NEW YORK
   AS QUOTED IN "FROM SANDS TO CIRCUITS", IBM INNOVATION JANUARY 1985.
 Job cpu time:  0 days  0 hours  0 minutes  1.0 seconds.
 File lengths (MBytes):  RWF=     11 Int=      0 D2E=      0 Chk=      7 Scr=      1
 Normal termination of Gaussian 03 at Mon Jun 19 11:51:31 2017.
