 Entering Link 1 = C:\G03W\l1.exe PID=       824.
  
 Copyright (c) 1988,1990,1992,1993,1995,1998,2003, Gaussian, Inc.
                  All Rights Reserved.
  
 This is the Gaussian(R) 03 program.  It is based on the
 the Gaussian(R) 98 system (copyright 1998, Gaussian, Inc.),
 the Gaussian(R) 94 system (copyright 1995, Gaussian, Inc.),
 the Gaussian 92(TM) system (copyright 1992, Gaussian, Inc.),
 the Gaussian 90(TM) system (copyright 1990, Gaussian, Inc.),
 the Gaussian 88(TM) system (copyright 1988, Gaussian, Inc.),
 the Gaussian 86(TM) system (copyright 1986, Carnegie Mellon
 University), and the Gaussian 82(TM) system (copyright 1983,
 Carnegie Mellon University). Gaussian is a federally registered
 trademark of Gaussian, Inc.
  
 This software contains proprietary and confidential information,
 including trade secrets, belonging to Gaussian, Inc.
  
 This software is provided under written license and may be
 used, copied, transmitted, or stored only in accord with that
 written license.
  
 The following legend is applicable only to US Government
 contracts under DFARS:
  
                    RESTRICTED RIGHTS LEGEND
  
 Use, duplication or disclosure by the US Government is subject
 to restrictions as set forth in subparagraph (c)(1)(ii) of the
 Rights in Technical Data and Computer Software clause at DFARS
 252.227-7013.
  
 Gaussian, Inc.
 Carnegie Office Park, Building 6, Pittsburgh, PA 15106 USA
  
 The following legend is applicable only to US Government
 contracts under FAR:
  
                    RESTRICTED RIGHTS LEGEND
  
 Use, reproduction and disclosure by the US Government is subject
 to restrictions as set forth in subparagraph (c) of the
 Commercial Computer Software - Restricted Rights clause at FAR
 52.227-19.
  
 Gaussian, Inc.
 Carnegie Office Park, Building 6, Pittsburgh, PA 15106 USA
  
  
 ---------------------------------------------------------------
 Warning -- This program may not be used in any manner that
 competes with the business of Gaussian, Inc. or will provide
 assistance to any competitor of Gaussian, Inc.  The licensee
 of this program is prohibited from giving any competitor of
 Gaussian, Inc. access to this program.  By using this program,
 the user acknowledges that Gaussian, Inc. is engaged in the
 business of creating and licensing software in the field of
 computational chemistry and represents and warrants to the
 licensee that it is not a competitor of Gaussian, Inc. and that
 it will not use this program in any manner prohibited above.
 ---------------------------------------------------------------
  

 Cite this work as:
 Gaussian 03, Revision B.03,
 M. J. Frisch, G. W. Trucks, H. B. Schlegel, G. E. Scuseria, 
 M. A. Robb, J. R. Cheeseman, J. A. Montgomery, Jr., T. Vreven, 
 K. N. Kudin, J. C. Burant, J. M. Millam, S. S. Iyengar, J. Tomasi, 
 V. Barone, B. Mennucci, M. Cossi, G. Scalmani, N. Rega, 
 G. A. Petersson, H. Nakatsuji, M. Hada, M. Ehara, K. Toyota, 
 R. Fukuda, J. Hasegawa, M. Ishida, T. Nakajima, Y. Honda, O. Kitao, 
 H. Nakai, M. Klene, X. Li, J. E. Knox, H. P. Hratchian, J. B. Cross, 
 C. Adamo, J. Jaramillo, R. Gomperts, R. E. Stratmann, O. Yazyev, 
 A. J. Austin, R. Cammi, C. Pomelli, J. W. Ochterski, P. Y. Ayala, 
 K. Morokuma, G. A. Voth, P. Salvador, J. J. Dannenberg, 
 V. G. Zakrzewski, S. Dapprich, A. D. Daniels, M. C. Strain, 
 O. Farkas, D. K. Malick, A. D. Rabuck, K. Raghavachari, 
 J. B. Foresman, J. V. Ortiz, Q. Cui, A. G. Baboul, S. Clifford, 
 J. Cioslowski, B. B. Stefanov, G. Liu, A. Liashenko, P. Piskorz, 
 I. Komaromi, R. L. Martin, D. J. Fox, T. Keith, M. A. Al-Laham, 
 C. Y. Peng, A. Nanayakkara, M. Challacombe, P. M. W. Gill, 
 B. Johnson, W. Chen, M. W. Wong, C. Gonzalez, and J. A. Pople, 
 Gaussian, Inc., Pittsburgh PA, 2003.
 
 *********************************************
 Gaussian 03:  x86-Win32-G03RevB.03 4-May-2003
                  19-Jun-2017 
 *********************************************
 % Chk=H2S+-3-21g-CUARTETE
 Default route:  MaxDisk=2000MB
 ---------------------
 # rohf/3-21g pop=full
 ---------------------
 1/38=1/1;
 2/17=6,18=5,40=1/2;
 3/5=5,11=2,16=1,25=1,30=1/1,2,3;
 4/7=6/1;
 5/5=2,32=1,38=5/2;
 6/7=3,28=1/1;
 99/5=1,9=1/99;
 --------------------
 RHF en 3-21g de H2S+
 --------------------
 Symbolic Z-matrix:
 Charge =  1 Multiplicity = 4
 S1
 H2                   1     1.336 
 H3                   1     1.336    2     92.11 
 
                          Input orientation:                          
 ---------------------------------------------------------------------
 Center     Atomic     Atomic              Coordinates (Angstroms)
 Number     Number      Type              X           Y           Z
 ---------------------------------------------------------------------
    1         16             0        0.000000    0.000000    0.000000
    2          1             0        0.000000    0.000000    1.336000
    3          1             0        1.335094    0.000000   -0.049189
 ---------------------------------------------------------------------
                    Distance matrix (angstroms):
                    1          2          3
     1  S    0.000000
     2  H    1.336000   0.000000
     3  H    1.336000   1.923857   0.000000
 Stoichiometry    H2S(1+,4)
 Framework group  C2V[C2(S),SGV(H2)]
 Deg. of freedom     2
 Full point group                 C2V     NOp   4
 Largest Abelian subgroup         C2V     NOp   4
 Largest concise Abelian subgroup C2      NOp   2
                         Standard orientation:                         
 ---------------------------------------------------------------------
 Center     Atomic     Atomic              Coordinates (Angstroms)
 Number     Number      Type              X           Y           Z
 ---------------------------------------------------------------------
    1         16             0        0.000000    0.000000    0.103016
    2          1             0        0.000000    0.961928   -0.824125
    3          1             0        0.000000   -0.961928   -0.824125
 ---------------------------------------------------------------------
 Rotational constants (GHZ):    310.0716863    270.9670960    144.6017494
 Standard basis: 3-21G (6D, 7F)
 There are     9 symmetry adapted basis functions of A1  symmetry.
 There are     0 symmetry adapted basis functions of A2  symmetry.
 There are     3 symmetry adapted basis functions of B1  symmetry.
 There are     5 symmetry adapted basis functions of B2  symmetry.
 Integral buffers will be    262144 words long.
 Raffenetti 2 integral format.
 Two-electron integral symmetry is turned on.
    17 basis functions,    33 primitive gaussians,    17 cartesian basis functions
    10 alpha electrons        7 beta electrons
       nuclear repulsion energy        12.9499637920 Hartrees.
 NAtoms=    3 NActive=    3 NUniq=    2 SFac= 2.76D+00 NAtFMM=   60 Big=F
 One-electron integrals computed using PRISM.
 NBasis=    17 RedAO= T  NBF=     9     0     3     5
 NBsUse=    17 1.00D-06 NBFU=     9     0     3     5
 Harris functional with IExCor=  205 diagonalized for initial guess.
 ExpMin= 1.42D-01 ExpMax= 1.21D+03 ExpMxC= 1.21D+03 IAcc=1 IRadAn=         1 AccDes= 1.00D-06
 HarFok:  IExCor= 205 AccDes= 1.00D-06 IRadAn=         1 IDoV=1
 ScaDFX=  1.000000  1.000000  1.000000  1.000000
 Initial guess orbital symmetries:
       Occupied  (A1) (A1) (B2) (A1) (B1) (A1) (B2) (A1) (B1) (B2)
       Virtual   (A1) (B2) (A1) (B1) (A1) (A1) (B2)
 The electronic state of the initial guess is 4-A2.
 Warning!  Cutoffs for single-point calculations used.
 Requested convergence on RMS density matrix=1.00D-04 within 128 cycles.
 Requested convergence on MAX density matrix=1.00D-02.
 Requested convergence on             energy=5.00D-05.
 No special actions if energy rises.
 Keep R1 and R2 integrals in memory in canonical form, NReq=      445113.
 Rare condition: small coef for last iteration:  0.000D+00
 EnCoef did   100 forward-backward iterations
 EnCoef did   100 forward-backward iterations
 Rare condition: small coef for last iteration: -0.342D-15
 EnCoef did   100 forward-backward iterations
 EnCoef did   100 forward-backward iterations
 Rare condition: small coef for last iteration:  0.150D-15
 SCF Done:  E(ROHF) =  -396.027927477     A.U. after   13 cycles
             Convg  =    0.5405D-04             -V/T =  1.9991
             S**2   =   3.7500
 Annihilation of the first spin contaminant:
 S**2 before annihilation     3.7500,   after     3.7500

 **********************************************************************

            Population analysis using the SCF density.

 **********************************************************************

 Orbital symmetries:
       Occupied  (A1) (A1) (B2) (A1) (B1) (A1) (B2) (A1) (B1) (B2)
       Virtual   (A1) (A1) (B2) (B1) (A1) (A1) (B2)
 The electronic state is 4-A2.
 Alpha  occ. eigenvalues --  -91.78522  -9.38210  -7.05503  -7.05487  -7.04998
 Alpha  occ. eigenvalues --   -1.32073  -0.92062  -0.47091  -0.39782  -0.16570
 Alpha virt. eigenvalues --   -0.09760   0.29951   0.32583   0.33258   0.36408
 Alpha virt. eigenvalues --    0.86413   0.89951
     Molecular Orbital Coefficients
                           1         2         3         4         5
                        (A1)--O   (A1)--O   (B2)--O   (A1)--O   (B1)--O
     EIGENVALUES --   -91.78522  -9.38210  -7.05503  -7.05487  -7.04998
   1 1   S  1S          0.98645  -0.30134   0.00000  -0.00104   0.00000
   2        2S          0.05116   0.98904   0.00000   0.00364   0.00000
   3        2PX         0.00000   0.00000   0.00000   0.00000   0.97389
   4        2PY         0.00000   0.00000   0.97424   0.00000   0.00000
   5        2PZ        -0.00010  -0.00215   0.00000   0.97315   0.00000
   6        3S         -0.01707   0.13112   0.00000  -0.00417   0.00000
   7        3PX         0.00000   0.00000   0.00000   0.00000   0.08189
   8        3PY         0.00000   0.00000   0.08115   0.00000   0.00000
   9        3PZ         0.00046  -0.00351   0.00000   0.08444   0.00000
  10        4S          0.01116  -0.06980   0.00000   0.01273   0.00000
  11        4PX         0.00000   0.00000   0.00000   0.00000  -0.02341
  12        4PY         0.00000   0.00000  -0.02864   0.00000   0.00000
  13        4PZ        -0.00225   0.01456   0.00000  -0.03100   0.00000
  14 2   H  1S          0.00090  -0.00458  -0.00471   0.00435   0.00000
  15        2S         -0.00286   0.01778   0.00869  -0.01015   0.00000
  16 3   H  1S          0.00090  -0.00458   0.00471   0.00435   0.00000
  17        2S         -0.00286   0.01778  -0.00869  -0.01015   0.00000
                           6         7         8         9        10
                        (A1)--O   (B2)--O   (A1)--O   (B1)--O   (B2)--O
     EIGENVALUES --    -1.32073  -0.92062  -0.47091  -0.39782  -0.16570
   1 1   S  1S          0.07109   0.00000   0.03512   0.00000   0.00000
   2        2S         -0.40685   0.00000  -0.20609   0.00000   0.00000
   3        2PX         0.00000   0.00000   0.00000  -0.30307   0.00000
   4        2PY         0.00000  -0.24682   0.00000   0.00000   0.17192
   5        2PZ         0.07805   0.00000  -0.24986   0.00000   0.00000
   6        3S          0.55961   0.00000   0.30575   0.00000   0.00000
   7        3PX         0.00000   0.00000   0.00000   0.69952   0.00000
   8        3PY         0.00000   0.55416   0.00000   0.00000  -0.42044
   9        3PZ        -0.16949   0.00000   0.56350   0.00000   0.00000
  10        4S          0.38265   0.00000   0.30491   0.00000   0.00000
  11        4PX         0.00000   0.00000   0.00000   0.43376   0.00000
  12        4PY         0.00000   0.24101   0.00000   0.00000  -0.89270
  13        4PZ        -0.08238   0.00000   0.26877   0.00000   0.00000
  14 2   H  1S          0.13419   0.19986  -0.13819   0.00000   0.23758
  15        2S          0.03076   0.16748  -0.13684   0.00000   0.92805
  16 3   H  1S          0.13419  -0.19986  -0.13819   0.00000  -0.23758
  17        2S          0.03076  -0.16748  -0.13684   0.00000  -0.92805
                          11        12        13        14        15
                        (A1)--V   (A1)--V   (B2)--V   (B1)--V   (A1)--V
     EIGENVALUES --    -0.09760   0.29951   0.32583   0.33258   0.36408
   1 1   S  1S         -0.03291  -0.04516   0.00000   0.00000  -0.03492
   2        2S          0.20405   0.23807   0.00000   0.00000   0.17049
   3        2PX         0.00000   0.00000   0.00000   0.31902   0.00000
   4        2PY         0.00000   0.00000   0.30171   0.00000   0.00000
   5        2PZ        -0.13762   0.22400   0.00000   0.00000  -0.21287
   6        3S         -0.31097  -1.43128   0.00000   0.00000  -1.40525
   7        3PX         0.00000   0.00000   0.00000  -1.17748   0.00000
   8        3PY         0.00000   0.00000  -1.14544   0.00000   0.00000
   9        3PZ         0.32486  -0.79231   0.00000   0.00000   0.85910
  10        4S         -1.14156   1.85384   0.00000   0.00000   2.40906
  11        4PX         0.00000   0.00000   0.00000   1.23201   0.00000
  12        4PY         0.00000   0.00000   1.45677   0.00000   0.00000
  13        4PZ         1.01843   0.45548   0.00000   0.00000  -1.74096
  14 2   H  1S          0.13844  -0.03960  -0.15024   0.00000  -0.21183
  15        2S          1.19972  -0.39886  -0.18622   0.00000  -0.84480
  16 3   H  1S          0.13844  -0.03960   0.15024   0.00000  -0.21183
  17        2S          1.19972  -0.39886   0.18622   0.00000  -0.84480
                          16        17
                        (A1)--V   (B2)--V
     EIGENVALUES --     0.86413   0.89951
   1 1   S  1S         -0.02045   0.00000
   2        2S          0.11162   0.00000
   3        2PX         0.00000   0.00000
   4        2PY         0.00000  -0.12572
   5        2PZ        -0.12875   0.00000
   6        3S         -0.53007   0.00000
   7        3PX         0.00000   0.00000
   8        3PY         0.00000   0.39143
   9        3PZ         0.38961   0.00000
  10        4S          1.45163   0.00000
  11        4PX         0.00000   0.00000
  12        4PY         0.00000  -0.85828
  13        4PZ        -0.77872   0.00000
  14 2   H  1S          0.89464  -0.91058
  15        2S         -1.31612   1.35848
  16 3   H  1S          0.89464   0.91058
  17        2S         -1.31612  -1.35848
     ALPHA DENSITY MATRIX.
                           1         2         3         4         5
   1 1   S  1S          1.07017
   2        2S         -0.28375   1.18883
   3        2PX         0.00000   0.00000   1.04031
   4        2PY         0.00000   0.00000   0.00000   1.03963
   5        2PZ        -0.00369   0.02115   0.00000   0.00000   1.01555
   6        3S         -0.00582  -0.16189   0.00000   0.00000  -0.03706
   7        3PX         0.00000   0.00000  -0.13226   0.00000   0.00000
   8        3PY         0.00000   0.00000   0.00000  -0.13000   0.00000
   9        3PZ         0.00916  -0.05032   0.00000   0.00000  -0.07185
  10        4S          0.06994  -0.28694   0.00000   0.00000  -0.03378
  11        4PX         0.00000   0.00000  -0.15426   0.00000   0.00000
  12        4PY         0.00000   0.00000   0.00000  -0.24086   0.00000
  13        4PZ        -0.00300  -0.00770   0.00000   0.00000  -0.10378
  14 2   H  1S          0.00695  -0.03058   0.00000  -0.01307   0.04925
  15        2S         -0.01078   0.03309   0.00000   0.12668   0.02667
  16 3   H  1S          0.00695  -0.03058   0.00000   0.01307   0.04925
  17        2S         -0.01078   0.03309   0.00000  -0.12668   0.02667
                           6         7         8         9        10
   6        3S          0.42414
   7        3PX         0.00000   0.49603
   8        3PY         0.00000   0.00000   0.49045
   9        3PZ         0.07662   0.00000   0.00000   0.35340
  10        4S          0.29796   0.00000   0.00000   0.10829   0.24455
  11        4PX         0.00000   0.30151   0.00000   0.00000   0.00000
  12        4PY         0.00000   0.00000   0.50657   0.00000   0.00000
  13        4PZ         0.03815   0.00000   0.00000   0.16274   0.04899
  14 2   H  1S          0.03221   0.00000   0.01049  -0.10023   0.00960
  15        2S         -0.02220   0.00000  -0.29667  -0.08324  -0.03136
  16 3   H  1S          0.03221   0.00000  -0.01049  -0.10023   0.00960
  17        2S         -0.02220   0.00000   0.29667  -0.08324  -0.03136
                          11        12        13        14        15
  11        4PX         0.18870
  12        4PY         0.00000   0.85582
  13        4PZ         0.00000   0.00000   0.08020
  14 2   H  1S          0.00000  -0.16378  -0.04840   0.13355
  15        2S          0.00000  -0.78835  -0.03873   0.27683   0.90950
  16 3   H  1S          0.00000   0.16378  -0.04840  -0.05927  -0.23101
  17        2S          0.00000   0.78835  -0.03873  -0.23101  -0.86930
                          16        17
  16 3   H  1S          0.13355
  17        2S          0.27683   0.90950
     BETA DENSITY MATRIX.
                           1         2         3         4         5
   1 1   S  1S          1.06894
   2        2S         -0.27651   1.14636
   3        2PX         0.00000   0.00000   0.94846
   4        2PY         0.00000   0.00000   0.00000   1.01007
   5        2PZ         0.00508  -0.03034   0.00000   0.00000   0.95312
   6        3S         -0.01656  -0.09888   0.00000   0.00000   0.03934
   7        3PX         0.00000   0.00000   0.07975   0.00000   0.00000
   8        3PY         0.00000   0.00000   0.00000  -0.05772   0.00000
   9        3PZ        -0.01063   0.06581   0.00000   0.00000   0.06895
  10        4S          0.05923  -0.22410   0.00000   0.00000   0.04240
  11        4PX         0.00000   0.00000  -0.02280   0.00000   0.00000
  12        4PY         0.00000   0.00000   0.00000  -0.08739   0.00000
  13        4PZ        -0.01243   0.04769   0.00000   0.00000  -0.03662
  14 2   H  1S          0.01180  -0.05906   0.00000  -0.05392   0.01472
  15        2S         -0.00598   0.00488   0.00000  -0.03287  -0.00752
  16 3   H  1S          0.01180  -0.05906   0.00000   0.05392   0.01472
  17        2S         -0.00598   0.00488   0.00000   0.03287  -0.00752
                           6         7         8         9        10
   6        3S          0.33066
   7        3PX         0.00000   0.00671
   8        3PY         0.00000   0.00000   0.31368
   9        3PZ        -0.09567   0.00000   0.00000   0.03587
  10        4S          0.20474   0.00000   0.00000  -0.06353   0.15158
  11        4PX         0.00000  -0.00192   0.00000   0.00000   0.00000
  12        4PY         0.00000   0.00000   0.13124   0.00000   0.00000
  13        4PZ        -0.04402   0.00000   0.00000   0.01129  -0.03296
  14 2   H  1S          0.07446   0.00000   0.11038  -0.02236   0.05173
  15        2S          0.01963   0.00000   0.09352  -0.00613   0.01037
  16 3   H  1S          0.07446   0.00000  -0.11038  -0.02236   0.05173
  17        2S          0.01963   0.00000  -0.09352  -0.00613   0.01037
                          11        12        13        14        15
  11        4PX         0.00055
  12        4PY         0.00000   0.05891
  13        4PZ         0.00000   0.00000   0.00796
  14 2   H  1S          0.00000   0.04830  -0.01126   0.05801
  15        2S          0.00000   0.04012  -0.00195   0.03743   0.02950
  16 3   H  1S          0.00000  -0.04830  -0.01126  -0.02192  -0.02943
  17        2S          0.00000  -0.04012  -0.00195  -0.02943  -0.02675
                          16        17
  16 3   H  1S          0.05801
  17        2S          0.03743   0.02950
    Full Mulliken population analysis:
                           1         2         3         4         5
   1 1   S  1S          2.13911
   2        2S         -0.14318   2.33520
   3        2PX         0.00000   0.00000   1.98877
   4        2PY         0.00000   0.00000   0.00000   2.04970
   5        2PZ         0.00000   0.00000   0.00000   0.00000   1.96867
   6        3S         -0.00113  -0.10645   0.00000   0.00000   0.00000
   7        3PX         0.00000   0.00000  -0.01644   0.00000   0.00000
   8        3PY         0.00000   0.00000   0.00000  -0.05877   0.00000
   9        3PZ         0.00000   0.00000   0.00000   0.00000  -0.00091
  10        4S          0.00428  -0.12788   0.00000   0.00000   0.00000
  11        4PX         0.00000   0.00000  -0.01256   0.00000   0.00000
  12        4PY         0.00000   0.00000   0.00000  -0.02328   0.00000
  13        4PZ         0.00000   0.00000   0.00000   0.00000  -0.00996
  14 2   H  1S          0.00001  -0.00086   0.00000  -0.00058  -0.00053
  15        2S         -0.00021   0.00373   0.00000   0.00227  -0.00045
  16 3   H  1S          0.00001  -0.00086   0.00000  -0.00058  -0.00053
  17        2S         -0.00021   0.00373   0.00000   0.00227  -0.00045
                           6         7         8         9        10
   6        3S          0.75480
   7        3PX         0.00000   0.50274
   8        3PY         0.00000   0.00000   0.80414
   9        3PZ         0.00000   0.00000   0.00000   0.38927
  10        4S          0.41584   0.00000   0.00000   0.00000   0.39613
  11        4PX         0.00000   0.18862   0.00000   0.00000   0.00000
  12        4PY         0.00000   0.00000   0.40155   0.00000   0.00000
  13        4PZ         0.00000   0.00000   0.00000   0.10957   0.00000
  14 2   H  1S          0.01642   0.00000   0.02389   0.02335   0.01597
  15        2S         -0.00103   0.00000  -0.04994   0.02118  -0.01245
  16 3   H  1S          0.01642   0.00000   0.02389   0.02335   0.01597
  17        2S         -0.00103   0.00000  -0.04994   0.02118  -0.01245
                          11        12        13        14        15
  11        4PX         0.18925
  12        4PY         0.00000   0.91473
  13        4PZ         0.00000   0.00000   0.08816
  14 2   H  1S          0.00000  -0.03539   0.01762   0.19157
  15        2S          0.00000  -0.34254   0.01795   0.20298   0.93900
  16 3   H  1S          0.00000  -0.03539   0.01762  -0.00029  -0.02284
  17        2S          0.00000  -0.34254   0.01795  -0.02284  -0.26703
                          16        17
  16 3   H  1S          0.19157
  17        2S          0.20298   0.93900
     Gross orbital populations:
                         TOTAL     ALPHA     BETA      SPIN
   1 1   S  1S          1.99868   0.99942   0.99926   0.00016
   2        2S          1.96343   0.98435   0.97908   0.00527
   3        2PX         1.95977   0.98796   0.97181   0.01615
   4        2PY         1.97104   0.98776   0.98328   0.00448
   5        2PZ         1.95585   0.98364   0.97222   0.01142
   6        3S          1.09384   0.59634   0.49750   0.09884
   7        3PX         0.67492   0.64445   0.03047   0.61398
   8        3PY         1.09479   0.62695   0.46784   0.15911
   9        3PZ         0.58699   0.51100   0.07599   0.43501
  10        4S          0.69541   0.38935   0.30606   0.08328
  11        4PX         0.36531   0.36759  -0.00228   0.36986
  12        4PY         0.53715   0.33548   0.20167   0.13381
  13        4PZ         0.25892   0.23807   0.02085   0.21722
  14 2   H  1S          0.43132   0.28381   0.14752   0.13629
  15        2S          0.49062   0.39002   0.10060   0.28942
  16 3   H  1S          0.43132   0.28381   0.14752   0.13629
  17        2S          0.49062   0.39002   0.10060   0.28942
          Condensed to atoms (all electrons):
              1          2          3
     1  S   15.759264  -0.301581  -0.301581
     2  H   -0.301581   1.536521  -0.312992
     3  H   -0.301581  -0.312992   1.536521
 Mulliken atomic charges:
              1
     1  S    0.843897
     2  H    0.078052
     3  H    0.078052
 Sum of Mulliken charges=   1.00000
 Atomic charges with hydrogens summed into heavy atoms:
              1
     1  S    1.000000
     2  H    0.000000
     3  H    0.000000
 Sum of Mulliken charges=   1.00000
          Atomic-Atomic Spin Densities.
              1          2          3
     1  S    3.253621  -0.552515  -0.552515
     2  H   -0.552515   1.264790  -0.286569
     3  H   -0.552515  -0.286569   1.264790
 Mulliken atomic spin densities:
              1
     1  S    2.148590
     2  H    0.425705
     3  H    0.425705
 Sum of Mulliken spin densities=   3.00000
 Electronic spatial extent (au):  <R**2>=    38.8231
 Charge=     1.0000 electrons
 Dipole moment (field-independent basis, Debye):
    X=     0.0000    Y=     0.0000    Z=     0.2034  Tot=     0.2034
 Quadrupole moment (field-independent basis, Debye-Ang):
   XX=   -11.3819   YY=   -13.0506   ZZ=   -11.5569
   XY=     0.0000   XZ=     0.0000   YZ=     0.0000
 Traceless Quadrupole moment (field-independent basis, Debye-Ang):
   XX=     0.6146   YY=    -1.0541   ZZ=     0.4396
   XY=     0.0000   XZ=     0.0000   YZ=     0.0000
 Octapole moment (field-independent basis, Debye-Ang**2):
  XXX=     0.0000  YYY=     0.0000  ZZZ=     2.6242  XYY=     0.0000
  XXY=     0.0000  XXZ=     0.3828  XZZ=     0.0000  YZZ=     0.0000
  YYZ=     0.7727  XYZ=     0.0000
 Hexadecapole moment (field-independent basis, Debye-Ang**3):
 XXXX=   -11.8987 YYYY=   -26.7345 ZZZZ=   -22.2808 XXXY=     0.0000
 XXXZ=     0.0000 YYYX=     0.0000 YYYZ=     0.0000 ZZZX=     0.0000
 ZZZY=     0.0000 XXYY=    -6.3716 XXZZ=    -5.5283 YYZZ=    -9.9809
 XXYZ=     0.0000 YYXZ=     0.0000 ZZXY=     0.0000
 N-N= 1.294996379203D+01 E-N=-9.626950812542D+02  KE= 3.964023236514D+02
 Symmetry A1   KE= 3.201558524788D+02
 Symmetry A2   KE= 0.000000000000D+00
 Symmetry B1   KE= 3.690158622826D+01
 Symmetry B2   KE= 3.934488494434D+01
 Orbital energies and kinetic energies (alpha):
                           1         2
       1  (A1)--O     -91.78522 120.25727
       2  (A1)--O      -9.38210  19.18927
       3  (B2)--O      -7.05503  17.36578
       4  (A1)--O      -7.05487  17.33340
       5  (B1)--O      -7.04998  17.35432
       6  (A1)--O      -1.32073   2.24367
       7  (B2)--O      -0.92062   1.66682
       8  (A1)--O      -0.47091   2.10863
       9  (B1)--O      -0.39782   2.19294
      10  (B2)--O      -0.16570   1.27970
      11  (A1)--V      -0.09760   1.38382
      12  (A1)--V       0.29951   2.41158
      13  (B2)--V       0.32583   2.37806
      14  (B1)--V       0.33258   2.56400
      15  (A1)--V       0.36408   2.08645
      16  (A1)--V       0.86413   2.57213
      17  (B2)--V       0.89951   2.32073
 Total kinetic energy from orbitals= 4.019835852845D+02
                          Isotropic Fermi Contact Couplings
        Atom                 a.u.       MegaHertz       Gauss      10(-4) cm-1
     1  S(33)              1.11994     128.22297      45.75314      42.77058
     2  H(1)               0.11997     178.75568      63.78447      59.62648
     3  H(1)               0.11997     178.75568      63.78447      59.62648
 --------------------------------------------------------
       Center         ----  Spin Dipole Couplings  ----
                      3XX-RR        3YY-RR        3ZZ-RR
 --------------------------------------------------------
     1   Atom        2.228616     -2.345602      0.116986
     2   Atom       -0.044112      0.039494      0.004618
     3   Atom       -0.044112      0.039494      0.004618
 --------------------------------------------------------
                        XY            XZ            YZ
 --------------------------------------------------------
     1   Atom        0.000000      0.000000      0.000000
     2   Atom        0.000000      0.000000     -0.077932
     3   Atom        0.000000      0.000000      0.077932
 --------------------------------------------------------


 ---------------------------------------------------------------------------------
              Anisotropic Spin Dipole Couplings in Principal Axis System
 ---------------------------------------------------------------------------------

       Atom             a.u.   MegaHertz   Gauss  10(-4) cm-1        Axes

              Baa    -2.3456   -96.168   -34.315   -32.078  0.0000  1.0000  0.0000
     1 S(33)  Bbb     0.1170     4.796     1.711     1.600  0.0000  0.0000  1.0000
              Bcc     2.2286    91.371    32.604    30.478  1.0000  0.0000  0.0000
 
              Baa    -0.0578   -30.841   -11.005   -10.287  0.0000  0.6252  0.7805
     2 H(1)   Bbb    -0.0441   -23.536    -8.398    -7.851  1.0000  0.0000  0.0000
              Bcc     0.1019    54.377    19.403    18.138  0.0000  0.7805 -0.6252
 
              Baa    -0.0578   -30.841   -11.005   -10.287  0.0000 -0.6252  0.7805
     3 H(1)   Bbb    -0.0441   -23.536    -8.398    -7.851  1.0000  0.0000  0.0000
              Bcc     0.1019    54.377    19.403    18.138  0.0000  0.7805  0.6252
 

 ---------------------------------------------------------------------------------

 1|1|UNPC-UNK|SP|ROHF|3-21G|H2S1(1+,4)|PCUSER|19-Jun-2017|0||# ROHF/3-2
 1G POP=FULL||RHF en 3-21g de H2S+||1,4|S|H,1,1.336|H,1,1.336,2,92.11||
 Version=x86-Win32-G03RevB.03|State=4-A2|HF=-396.0279275|RMSD=5.405e-00
 5|Dipole=-0.0576079,0.,-0.0555245|PG=C02V [C2(S1),SGV(H2)]||@


 IT WAS A GAME, A VERY INTERESTING GAME ONE COULD
 PLAY.  WHENEVER ONE SOLVED ONE OF THE LITTLE PROBLEMS,
 ONE COULD WRITE A PAPER ABOUT IT.  IT WAS VERY EASY IN
 THOSE DAYS FOR ANY SECOND-RATE PHYSICIST TO DO
 FIRST-RATE WORK.  THERE HAS NOT BEEN SUCH A GLORIOUS
 TIME SINCE.  IT IS VERY DIFFICULT NOW FOR A FIRST-RATE
 PHYSICIST TO DO SECOND-RATE WORK.
     P.A.M. DIRAC, ON THE EARLY DAYS OF QUANTUM MECHANICS
                   DIRECTIONS IN PHYSICS, 1978, P. 7
 Job cpu time:  0 days  0 hours  0 minutes  1.0 seconds.
 File lengths (MBytes):  RWF=     11 Int=      0 D2E=      0 Chk=      7 Scr=      1
 Normal termination of Gaussian 03 at Mon Jun 19 11:53:43 2017.
