 Entering Link 1 = C:\G03W\l1.exe PID=      2424.
  
 Copyright (c) 1988,1990,1992,1993,1995,1998,2003, Gaussian, Inc.
                  All Rights Reserved.
  
 This is the Gaussian(R) 03 program.  It is based on the
 the Gaussian(R) 98 system (copyright 1998, Gaussian, Inc.),
 the Gaussian(R) 94 system (copyright 1995, Gaussian, Inc.),
 the Gaussian 92(TM) system (copyright 1992, Gaussian, Inc.),
 the Gaussian 90(TM) system (copyright 1990, Gaussian, Inc.),
 the Gaussian 88(TM) system (copyright 1988, Gaussian, Inc.),
 the Gaussian 86(TM) system (copyright 1986, Carnegie Mellon
 University), and the Gaussian 82(TM) system (copyright 1983,
 Carnegie Mellon University). Gaussian is a federally registered
 trademark of Gaussian, Inc.
  
 This software contains proprietary and confidential information,
 including trade secrets, belonging to Gaussian, Inc.
  
 This software is provided under written license and may be
 used, copied, transmitted, or stored only in accord with that
 written license.
  
 The following legend is applicable only to US Government
 contracts under DFARS:
  
                    RESTRICTED RIGHTS LEGEND
  
 Use, duplication or disclosure by the US Government is subject
 to restrictions as set forth in subparagraph (c)(1)(ii) of the
 Rights in Technical Data and Computer Software clause at DFARS
 252.227-7013.
  
 Gaussian, Inc.
 Carnegie Office Park, Building 6, Pittsburgh, PA 15106 USA
  
 The following legend is applicable only to US Government
 contracts under FAR:
  
                    RESTRICTED RIGHTS LEGEND
  
 Use, reproduction and disclosure by the US Government is subject
 to restrictions as set forth in subparagraph (c) of the
 Commercial Computer Software - Restricted Rights clause at FAR
 52.227-19.
  
 Gaussian, Inc.
 Carnegie Office Park, Building 6, Pittsburgh, PA 15106 USA
  
  
 ---------------------------------------------------------------
 Warning -- This program may not be used in any manner that
 competes with the business of Gaussian, Inc. or will provide
 assistance to any competitor of Gaussian, Inc.  The licensee
 of this program is prohibited from giving any competitor of
 Gaussian, Inc. access to this program.  By using this program,
 the user acknowledges that Gaussian, Inc. is engaged in the
 business of creating and licensing software in the field of
 computational chemistry and represents and warrants to the
 licensee that it is not a competitor of Gaussian, Inc. and that
 it will not use this program in any manner prohibited above.
 ---------------------------------------------------------------
  

 Cite this work as:
 Gaussian 03, Revision B.03,
 M. J. Frisch, G. W. Trucks, H. B. Schlegel, G. E. Scuseria, 
 M. A. Robb, J. R. Cheeseman, J. A. Montgomery, Jr., T. Vreven, 
 K. N. Kudin, J. C. Burant, J. M. Millam, S. S. Iyengar, J. Tomasi, 
 V. Barone, B. Mennucci, M. Cossi, G. Scalmani, N. Rega, 
 G. A. Petersson, H. Nakatsuji, M. Hada, M. Ehara, K. Toyota, 
 R. Fukuda, J. Hasegawa, M. Ishida, T. Nakajima, Y. Honda, O. Kitao, 
 H. Nakai, M. Klene, X. Li, J. E. Knox, H. P. Hratchian, J. B. Cross, 
 C. Adamo, J. Jaramillo, R. Gomperts, R. E. Stratmann, O. Yazyev, 
 A. J. Austin, R. Cammi, C. Pomelli, J. W. Ochterski, P. Y. Ayala, 
 K. Morokuma, G. A. Voth, P. Salvador, J. J. Dannenberg, 
 V. G. Zakrzewski, S. Dapprich, A. D. Daniels, M. C. Strain, 
 O. Farkas, D. K. Malick, A. D. Rabuck, K. Raghavachari, 
 J. B. Foresman, J. V. Ortiz, Q. Cui, A. G. Baboul, S. Clifford, 
 J. Cioslowski, B. B. Stefanov, G. Liu, A. Liashenko, P. Piskorz, 
 I. Komaromi, R. L. Martin, D. J. Fox, T. Keith, M. A. Al-Laham, 
 C. Y. Peng, A. Nanayakkara, M. Challacombe, P. M. W. Gill, 
 B. Johnson, W. Chen, M. W. Wong, C. Gonzalez, and J. A. Pople, 
 Gaussian, Inc., Pittsburgh PA, 2003.
 
 *********************************************
 Gaussian 03:  x86-Win32-G03RevB.03 4-May-2003
                  19-Jun-2017 
 *********************************************
 %Chk=H2S-UB3LYP-6-31g-SCAN-GEO-SYM
 Default route:  MaxDisk=2000MB
 -----------------------------
 # UB3LYP/6-31g scan guess=mix
 -----------------------------
 1/38=1,60=1/1,8;
 2/17=6,18=5,29=3,40=1/2;
 3/5=1,6=6,11=2,16=1,25=1,30=1,74=-5/1,2,3;
 4/7=2,9=2,13=1/1;
 5/5=2,38=5/2;
 6/7=2,8=2,9=2,10=2,18=1,28=1/1;
 1/60=1/8(1);
 99/9=1/99;
 2/29=3/2;
 3/5=1,6=6,11=2,16=1,25=1,30=1,74=-5/1,2,3;
 4/5=5,7=2,9=2,16=3/1;
 5/5=2,38=5/2;
 1/60=1/8(-4);
 99/9=1/99;
 -----------------------------------------
 Disociacion simetrica UB3LYP 6-31g de H2S
 -----------------------------------------
 Symbolic Z-matrix:
 Charge =  0 Multiplicity = 1
 S
 H                    1    r
 H                    1    r        2    aHSH
       Variables:
  r                     6.     Scan 50   -0.11   
  aHSH                 92.11                     
 
 Scan the potential surface.
 Variable   Value     No. Steps Step-Size
 -------- ----------- --------- ---------
     1       6.000000      50     -0.1100
 A total of     51 points will be computed.
 ------------------------------------------------------------------------
                         Z-MATRIX (ANGSTROMS AND DEGREES)
 CD Cent Atom  N1     Length/X     N2    Alpha/Y     N3     Beta/Z      J
 ------------------------------------------------------------------------
   1   1  S 
   2   2  H     1   6.000000(  1)
   3   3  H     1   6.000000(  2)   2   92.110(  3)
 ------------------------------------------------------------------------
                         Z-Matrix orientation:                         
 ---------------------------------------------------------------------
 Center     Atomic     Atomic              Coordinates (Angstroms)
 Number     Number      Type              X           Y           Z
 ---------------------------------------------------------------------
    1         16             0        0.000000    0.000000    0.000000
    2          1             0        0.000000    0.000000    6.000000
    3          1             0        5.995932    0.000000   -0.220909
 ---------------------------------------------------------------------
                    Distance matrix (angstroms):
                    1          2          3
     1  S    0.000000
     2  H    6.000000   0.000000
     3  H    6.000000   8.640076   0.000000
                           Interatomic angles:
       H2-S1-H3= 92.11  
 Stoichiometry    H2S
 Framework group  C2V[C2(S),SGV(H2)]
 Deg. of freedom     2
 Full point group                 C2V     NOp   4
 Largest Abelian subgroup         C2V     NOp   4
 Largest concise Abelian subgroup C2      NOp   2
                         Standard orientation:                         
 ---------------------------------------------------------------------
 Center     Atomic     Atomic              Coordinates (Angstroms)
 Number     Number      Type              X           Y           Z
 ---------------------------------------------------------------------
    1         16             0        0.000000    0.000000    0.462645
    2          1             0        0.000000    4.320038   -3.701160
    3          1             0        0.000000   -4.320038   -3.701160
 ---------------------------------------------------------------------
 Rotational constants (GHZ):     15.3734920     13.4346690      7.1694190
 Standard basis: 6-31G (6D, 7F)
 There are     9 symmetry adapted basis functions of A1  symmetry.
 There are     0 symmetry adapted basis functions of A2  symmetry.
 There are     3 symmetry adapted basis functions of B1  symmetry.
 There are     5 symmetry adapted basis functions of B2  symmetry.
 Integral buffers will be    262144 words long.
 Raffenetti 2 integral format.
 Two-electron integral symmetry is turned on.
    17 basis functions,    54 primitive gaussians,    17 cartesian basis functions
     9 alpha electrons        9 beta electrons
       nuclear repulsion energy         2.8835252710 Hartrees.
 NAtoms=    3 NActive=    3 NUniq=    2 SFac= 2.76D+00 NAtFMM=   60 Big=F
 One-electron integrals computed using PRISM.
 NBasis=    17 RedAO= T  NBF=     9     0     3     5
 NBsUse=    17 1.00D-06 NBFU=     9     0     3     5
 SCF N**3 symmetry information disabled.
 Harris functional with IExCor=  402 diagonalized for initial guess.
 ExpMin= 1.17D-01 ExpMax= 2.19D+04 ExpMxC= 3.30D+03 IAcc=1 IRadAn=         1 AccDes= 1.00D-06
 HarFok:  IExCor= 402 AccDes= 1.00D-06 IRadAn=         1 IDoV=1
 ScaDFX=  1.000000  1.000000  1.000000  1.000000
 Initial guess orbital symmetries:
 Alpha Orbitals:
       Occupied  (A1) (A1) (B1) (A1) (B2) (A1) (B1) (B2) (A1)
       Virtual   (A1) (B2) (A1) (A1) (B2) (B1) (B2) (A1)
 Beta  Orbitals:
       Occupied  (A1) (A1) (B1) (A1) (B2) (A1) (B1) (B2) (A1)
       Virtual   (A1) (B2) (A1) (A1) (B2) (B1) (B2) (A1)
 The electronic state of the initial guess is 1-A1.
 <S**2> of initial guess= 1.0000
 Requested convergence on RMS density matrix=1.00D-08 within 128 cycles.
 Requested convergence on MAX density matrix=1.00D-06.
 Requested convergence on             energy=1.00D-06.
 No special actions if energy rises.
 Keep R1 and R2 integrals in memory in canonical form, NReq=      469957.
 Integral accuracy reduced to 1.0D-05 until final iterations.
 EnCoef did   100 forward-backward iterations
 Rare condition: small coef for last iteration:  0.000D+00
 Restarting incremental Fock formation.
 Initial convergence to 1.0D-05 achieved.  Increase integral accuracy.
 SCF Done:  E(UB+HF-LYP) =  -398.932321087     A.U. after   31 cycles
             Convg  =    0.4945D-08             -V/T =  2.0019
             S**2   =   0.1176
 Annihilation of the first spin contaminant:
 S**2 before annihilation     0.1176,   after     0.0000

 **********************************************************************

            Population analysis using the SCF density.

 **********************************************************************

 Orbital symmetries:
 Alpha Orbitals:
       Occupied  (A1) (A1) (A1) (B2) (B1) (A1) (B2) (B1) (A1)
       Virtual   (B2) (A1) (A1) (A1) (B2) (B1) (B2) (A1)
 Beta  Orbitals:
       Occupied  (A1) (A1) (A1) (B2) (B1) (A1) (B2) (B1) (A1)
       Virtual   (B2) (A1) (A1) (A1) (B2) (B1) (B2) (A1)
 The electronic state is 1-A1.
 Alpha  occ. eigenvalues --  -88.91287  -7.98325  -5.96074  -5.93449  -5.93447
 Alpha  occ. eigenvalues --   -0.66780  -0.26160  -0.26151  -0.24664
 Alpha virt. eigenvalues --   -0.23423  -0.22978   0.27544   0.34280   0.36602
 Alpha virt. eigenvalues --    0.36617   0.74000   0.74000
  Beta  occ. eigenvalues --  -88.91282  -7.98321  -5.96061  -5.93445  -5.93444
  Beta  occ. eigenvalues --   -0.66742  -0.26144  -0.26138  -0.24746
  Beta virt. eigenvalues --   -0.23503  -0.22880   0.27554   0.34308   0.36608
  Beta virt. eigenvalues --    0.36622   0.73939   0.73939
          Condensed to atoms (all electrons):
              1          2          3
     1  S   16.060188   0.000002   0.000002
     2  H    0.000002   0.969902   0.000000
     3  H    0.000002   0.000000   0.969902
 Mulliken atomic charges:
              1
     1  S   -0.060192
     2  H    0.030096
     3  H    0.030096
 Sum of Mulliken charges=   0.00000
 Atomic charges with hydrogens summed into heavy atoms:
              1
     1  S    0.000000
     2  H    0.000000
     3  H    0.000000
 Sum of Mulliken charges=   0.00000
          Atomic-Atomic Spin Densities.
              1          2          3
     1  S    0.007126  -0.000037  -0.000037
     2  H   -0.000037  -0.003488   0.000000
     3  H   -0.000037   0.000000  -0.003488
 Mulliken atomic spin densities:
              1
     1  S    0.007051
     2  H   -0.003525
     3  H   -0.003525
 Sum of Mulliken spin densities=   0.00000
 Electronic spatial extent (au):  <R**2>=   271.8840
 Charge=     0.0000 electrons
 Dipole moment (field-independent basis, Debye):
    X=     0.0000    Y=     0.0000    Z=    -1.1981  Tot=     1.1981
 Quadrupole moment (field-independent basis, Debye-Ang):
   XX=   -17.6628   YY=   -12.2659   ZZ=    -8.4392
   XY=     0.0000   XZ=     0.0000   YZ=     0.0000
 Traceless Quadrupole moment (field-independent basis, Debye-Ang):
   XX=    -4.8735   YY=     0.5234   ZZ=     4.3501
   XY=     0.0000   XZ=     0.0000   YZ=     0.0000
 Octapole moment (field-independent basis, Debye-Ang**2):
  XXX=     0.0000  YYY=     0.0000  ZZZ=     1.2853  XYY=     0.0000
  XXY=     0.0000  XXZ=     2.8621  XZZ=     0.0000  YZZ=     0.0000
  YYZ=   -17.1086  XYZ=     0.0000
 Hexadecapole moment (field-independent basis, Debye-Ang**3):
 XXXX=   -24.3986 YYYY=  -220.3612 ZZZZ=  -188.5056 XXXY=     0.0000
 XXXZ=     0.0000 YYYX=     0.0000 YYYZ=     0.0000 ZZZX=     0.0000
 ZZZY=     0.0000 XXYY=   -57.5772 XXZZ=   -45.6636 YYZZ=   -21.1898
 XXYZ=     0.0000 YYXZ=     0.0000 ZZXY=     0.0000
 N-N= 2.883525271026D+00 E-N=-9.544762973982D+02  KE= 3.981670520034D+02
                          Isotropic Fermi Contact Couplings
        Atom                 a.u.       MegaHertz       Gauss      10(-4) cm-1
     1  S(33)              0.00085       0.14583       0.05204       0.04864
     2  H(1)              -0.00110      -2.45790      -0.87704      -0.81987
     3  H(1)              -0.00110      -2.45790      -0.87704      -0.81987
 --------------------------------------------------------
       Center         ----  Spin Dipole Couplings  ----
                      3XX-RR        3YY-RR        3ZZ-RR
 --------------------------------------------------------
     1   Atom       -0.014863     -0.012580      0.027443
     2   Atom       -0.000003      0.000001      0.000002
     3   Atom       -0.000003      0.000001      0.000002
 --------------------------------------------------------
                        XY            XZ            YZ
 --------------------------------------------------------
     1   Atom        0.000000      0.000000      0.000000
     2   Atom        0.000000      0.000000     -0.000006
     3   Atom        0.000000      0.000000      0.000006
 --------------------------------------------------------


 ---------------------------------------------------------------------------------
              Anisotropic Spin Dipole Couplings in Principal Axis System
 ---------------------------------------------------------------------------------

       Atom             a.u.   MegaHertz   Gauss  10(-4) cm-1        Axes

              Baa    -0.0149    -0.609    -0.217    -0.203  1.0000  0.0000  0.0000
     1 S(33)  Bbb    -0.0126    -0.516    -0.184    -0.172  0.0000  1.0000  0.0000
              Bcc     0.0274     1.125     0.401     0.375  0.0000  0.0000  1.0000
 
              Baa     0.0000    -0.002    -0.001    -0.001  0.0000  0.7481  0.6636
     2 H(1)   Bbb     0.0000    -0.002    -0.001    -0.001  1.0000  0.0000  0.0000
              Bcc     0.0000     0.004     0.002     0.001  0.0000 -0.6636  0.7481
 
              Baa     0.0000    -0.002    -0.001    -0.001  0.0000  0.7481 -0.6636
     3 H(1)   Bbb     0.0000    -0.002    -0.001    -0.001  1.0000  0.0000  0.0000
              Bcc     0.0000     0.004     0.002     0.001  0.0000  0.6636  0.7481
 

 ---------------------------------------------------------------------------------

 Variable Step   Value    
 -------- ---- -----------
     1       1   11.130487
 ------------------------------------------------------------------------
                         Z-MATRIX (ANGSTROMS AND DEGREES)
 CD Cent Atom  N1     Length/X     N2    Alpha/Y     N3     Beta/Z      J
 ------------------------------------------------------------------------
   1   1  S 
   2   2  H     1   5.890000(  1)
   3   3  H     1   5.890000(  2)   2   92.110(  3)
 ------------------------------------------------------------------------
                         Z-Matrix orientation:                         
 ---------------------------------------------------------------------
 Center     Atomic     Atomic              Coordinates (Angstroms)
 Number     Number      Type              X           Y           Z
 ---------------------------------------------------------------------
    1         16             0        0.000000    0.000000    0.000000
    2          1             0        0.000000    0.000000    5.890000
    3          1             0        5.886006    0.000000   -0.216859
 ---------------------------------------------------------------------
                    Distance matrix (angstroms):
                    1          2          3
     1  S    0.000000
     2  H    5.890000   0.000000
     3  H    5.890000   8.481674   0.000000
                           Interatomic angles:
       H2-S1-H3= 92.11  
 Stoichiometry    H2S
 Framework group  C2V[C2(S),SGV(H2)]
 Deg. of freedom     2
 Full point group                 C2V     NOp   4
 Largest Abelian subgroup         C2V     NOp   4
 Largest concise Abelian subgroup C2      NOp   2
                         Standard orientation:                         
 ---------------------------------------------------------------------
 Center     Atomic     Atomic              Coordinates (Angstroms)
 Number     Number      Type              X           Y           Z
 ---------------------------------------------------------------------
    1         16             0        0.000000    0.000000    0.454163
    2          1             0        0.000000    4.240837   -3.633306
    3          1             0        0.000000   -4.240837   -3.633306
 ---------------------------------------------------------------------
 Rotational constants (GHZ):     15.9530761     13.9411591      7.4397077
 Standard basis: 6-31G (6D, 7F)
 There are     9 symmetry adapted basis functions of A1  symmetry.
 There are     0 symmetry adapted basis functions of A2  symmetry.
 There are     3 symmetry adapted basis functions of B1  symmetry.
 There are     5 symmetry adapted basis functions of B2  symmetry.
 Integral buffers will be    262144 words long.
 Raffenetti 2 integral format.
 Two-electron integral symmetry is turned on.
    17 basis functions,    54 primitive gaussians,    17 cartesian basis functions
     9 alpha electrons        9 beta electrons
       nuclear repulsion energy         2.9373771861 Hartrees.
 NAtoms=    3 NActive=    3 NUniq=    2 SFac= 2.76D+00 NAtFMM=   60 Big=F
 One-electron integrals computed using PRISM.
 NBasis=    17 RedAO= T  NBF=     9     0     3     5
 NBsUse=    17 1.00D-06 NBFU=     9     0     3     5
 SCF N**3 symmetry information disabled.
 Initial guess read from the read-write file:
 Initial guess orbital symmetries:
 Alpha Orbitals:
       Occupied  (A1) (A1) (A1) (B2) (B1) (A1) (B2) (B1) (A1)
       Virtual   (B2) (A1) (A1) (A1) (B2) (B1) (B2) (A1)
 Beta  Orbitals:
       Occupied  (A1) (A1) (A1) (B2) (B1) (A1) (B2) (B1) (A1)
       Virtual   (B2) (A1) (A1) (A1) (B2) (B1) (B2) (A1)
 <S**2> of initial guess= 0.1176
 Harris functional with IExCor=  402 diagonalized for initial guess.
 ExpMin= 1.17D-01 ExpMax= 2.19D+04 ExpMxC= 3.30D+03 IAcc=1 IRadAn=         1 AccDes= 1.00D-06
 HarFok:  IExCor= 402 AccDes= 1.00D-06 IRadAn=         1 IDoV=1
 ScaDFX=  1.000000  1.000000  1.000000  1.000000
 Requested convergence on RMS density matrix=1.00D-08 within 128 cycles.
 Requested convergence on MAX density matrix=1.00D-06.
 Requested convergence on             energy=1.00D-06.
 No special actions if energy rises.
 Keep R1 and R2 integrals in memory in canonical form, NReq=      469957.
 Integral accuracy reduced to 1.0D-05 until final iterations.
 Initial convergence to 1.0D-05 achieved.  Increase integral accuracy.
 SCF Done:  E(UB+HF-LYP) =  -398.932443680     A.U. after   18 cycles
             Convg  =    0.3001D-08             -V/T =  2.0019
             S**2   =   0.1202
 Annihilation of the first spin contaminant:
 S**2 before annihilation     0.1202,   after     0.0001
 Variable Step   Value    
 -------- ---- -----------
     1       2   10.922617
 ------------------------------------------------------------------------
                         Z-MATRIX (ANGSTROMS AND DEGREES)
 CD Cent Atom  N1     Length/X     N2    Alpha/Y     N3     Beta/Z      J
 ------------------------------------------------------------------------
   1   1  S 
   2   2  H     1   5.780000(  1)
   3   3  H     1   5.780000(  2)   2   92.110(  3)
 ------------------------------------------------------------------------
                         Z-Matrix orientation:                         
 ---------------------------------------------------------------------
 Center     Atomic     Atomic              Coordinates (Angstroms)
 Number     Number      Type              X           Y           Z
 ---------------------------------------------------------------------
    1         16             0        0.000000    0.000000    0.000000
    2          1             0        0.000000    0.000000    5.780000
    3          1             0        5.776081    0.000000   -0.212809
 ---------------------------------------------------------------------
                    Distance matrix (angstroms):
                    1          2          3
     1  S    0.000000
     2  H    5.780000   0.000000
     3  H    5.780000   8.323273   0.000000
                           Interatomic angles:
       H2-S1-H3= 92.11  
 Stoichiometry    H2S
 Framework group  C2V[C2(S),SGV(H2)]
 Deg. of freedom     2
 Full point group                 C2V     NOp   4
 Largest Abelian subgroup         C2V     NOp   4
 Largest concise Abelian subgroup C2      NOp   2
                         Standard orientation:                         
 ---------------------------------------------------------------------
 Center     Atomic     Atomic              Coordinates (Angstroms)
 Number     Number      Type              X           Y           Z
 ---------------------------------------------------------------------
    1         16             0        0.000000    0.000000    0.445681
    2          1             0        0.000000    4.161636   -3.565451
    3          1             0        0.000000   -4.161636   -3.565451
 ---------------------------------------------------------------------
 Rotational constants (GHZ):     16.5660646     14.4768407      7.7255745
 Standard basis: 6-31G (6D, 7F)
 There are     9 symmetry adapted basis functions of A1  symmetry.
 There are     0 symmetry adapted basis functions of A2  symmetry.
 There are     3 symmetry adapted basis functions of B1  symmetry.
 There are     5 symmetry adapted basis functions of B2  symmetry.
 Integral buffers will be    262144 words long.
 Raffenetti 2 integral format.
 Two-electron integral symmetry is turned on.
    17 basis functions,    54 primitive gaussians,    17 cartesian basis functions
     9 alpha electrons        9 beta electrons
       nuclear repulsion energy         2.9932788281 Hartrees.
 NAtoms=    3 NActive=    3 NUniq=    2 SFac= 2.76D+00 NAtFMM=   60 Big=F
 One-electron integrals computed using PRISM.
 NBasis=    17 RedAO= T  NBF=     9     0     3     5
 NBsUse=    17 1.00D-06 NBFU=     9     0     3     5
 SCF N**3 symmetry information disabled.
 Initial guess read from the read-write file:
 Initial guess orbital symmetries:
 Alpha Orbitals:
       Occupied  (A1) (A1) (A1) (B2) (B1) (A1) (B2) (B1) (A1)
       Virtual   (B2) (A1) (A1) (A1) (B2) (B1) (B2) (A1)
 Beta  Orbitals:
       Occupied  (A1) (A1) (A1) (B2) (B1) (A1) (B2) (B1) (A1)
       Virtual   (B2) (A1) (A1) (A1) (B2) (B1) (B2) (A1)
 <S**2> of initial guess= 0.1202
 Harris functional with IExCor=  402 diagonalized for initial guess.
 ExpMin= 1.17D-01 ExpMax= 2.19D+04 ExpMxC= 3.30D+03 IAcc=1 IRadAn=         1 AccDes= 1.00D-06
 HarFok:  IExCor= 402 AccDes= 1.00D-06 IRadAn=         1 IDoV=1
 ScaDFX=  1.000000  1.000000  1.000000  1.000000
 Requested convergence on RMS density matrix=1.00D-08 within 128 cycles.
 Requested convergence on MAX density matrix=1.00D-06.
 Requested convergence on             energy=1.00D-06.
 No special actions if energy rises.
 Keep R1 and R2 integrals in memory in canonical form, NReq=      469957.
 Integral accuracy reduced to 1.0D-05 until final iterations.
 Initial convergence to 1.0D-05 achieved.  Increase integral accuracy.
 SCF Done:  E(UB+HF-LYP) =  -398.932569042     A.U. after   21 cycles
             Convg  =    0.1948D-08             -V/T =  2.0019
             S**2   =   0.1237
 Annihilation of the first spin contaminant:
 S**2 before annihilation     0.1237,   after     0.0001
 Variable Step   Value    
 -------- ---- -----------
     1       3   10.714747
 ------------------------------------------------------------------------
                         Z-MATRIX (ANGSTROMS AND DEGREES)
 CD Cent Atom  N1     Length/X     N2    Alpha/Y     N3     Beta/Z      J
 ------------------------------------------------------------------------
   1   1  S 
   2   2  H     1   5.670000(  1)
   3   3  H     1   5.670000(  2)   2   92.110(  3)
 ------------------------------------------------------------------------
                         Z-Matrix orientation:                         
 ---------------------------------------------------------------------
 Center     Atomic     Atomic              Coordinates (Angstroms)
 Number     Number      Type              X           Y           Z
 ---------------------------------------------------------------------
    1         16             0        0.000000    0.000000    0.000000
    2          1             0        0.000000    0.000000    5.670000
    3          1             0        5.666156    0.000000   -0.208759
 ---------------------------------------------------------------------
                    Distance matrix (angstroms):
                    1          2          3
     1  S    0.000000
     2  H    5.670000   0.000000
     3  H    5.670000   8.164871   0.000000
                           Interatomic angles:
       H2-S1-H3= 92.11  
 Stoichiometry    H2S
 Framework group  C2V[C2(S),SGV(H2)]
 Deg. of freedom     2
 Full point group                 C2V     NOp   4
 Largest Abelian subgroup         C2V     NOp   4
 Largest concise Abelian subgroup C2      NOp   2
                         Standard orientation:                         
 ---------------------------------------------------------------------
 Center     Atomic     Atomic              Coordinates (Angstroms)
 Number     Number      Type              X           Y           Z
 ---------------------------------------------------------------------
    1         16             0        0.000000    0.000000    0.437200
    2          1             0        0.000000    4.082436   -3.497596
    3          1             0        0.000000   -4.082436   -3.497596
 ---------------------------------------------------------------------
 Rotational constants (GHZ):     17.2150746     15.0440011      8.0282400
 Standard basis: 6-31G (6D, 7F)
 There are     9 symmetry adapted basis functions of A1  symmetry.
 There are     0 symmetry adapted basis functions of A2  symmetry.
 There are     3 symmetry adapted basis functions of B1  symmetry.
 There are     5 symmetry adapted basis functions of B2  symmetry.
 Integral buffers will be    262144 words long.
 Raffenetti 2 integral format.
 Two-electron integral symmetry is turned on.
    17 basis functions,    54 primitive gaussians,    17 cartesian basis functions
     9 alpha electrons        9 beta electrons
       nuclear repulsion energy         3.0513494931 Hartrees.
 NAtoms=    3 NActive=    3 NUniq=    2 SFac= 2.76D+00 NAtFMM=   60 Big=F
 One-electron integrals computed using PRISM.
 NBasis=    17 RedAO= T  NBF=     9     0     3     5
 NBsUse=    17 1.00D-06 NBFU=     9     0     3     5
 SCF N**3 symmetry information disabled.
 Initial guess read from the read-write file:
 Initial guess orbital symmetries:
 Alpha Orbitals:
       Occupied  (A1) (A1) (A1) (B2) (B1) (A1) (B2) (B1) (A1)
       Virtual   (B2) (A1) (A1) (A1) (B2) (B1) (B2) (A1)
 Beta  Orbitals:
       Occupied  (A1) (A1) (A1) (B2) (B1) (A1) (B2) (B1) (A1)
       Virtual   (B2) (A1) (A1) (A1) (B2) (B1) (B2) (A1)
 <S**2> of initial guess= 0.1237
 Harris functional with IExCor=  402 diagonalized for initial guess.
 ExpMin= 1.17D-01 ExpMax= 2.19D+04 ExpMxC= 3.30D+03 IAcc=1 IRadAn=         1 AccDes= 1.00D-06
 HarFok:  IExCor= 402 AccDes= 1.00D-06 IRadAn=         1 IDoV=1
 ScaDFX=  1.000000  1.000000  1.000000  1.000000
 Requested convergence on RMS density matrix=1.00D-08 within 128 cycles.
 Requested convergence on MAX density matrix=1.00D-06.
 Requested convergence on             energy=1.00D-06.
 No special actions if energy rises.
 Keep R1 and R2 integrals in memory in canonical form, NReq=      469957.
 Integral accuracy reduced to 1.0D-05 until final iterations.
 Initial convergence to 1.0D-05 achieved.  Increase integral accuracy.
 SCF Done:  E(UB+HF-LYP) =  -398.932706059     A.U. after   24 cycles
             Convg  =    0.2107D-08             -V/T =  2.0019
             S**2   =   0.1293
 Annihilation of the first spin contaminant:
 S**2 before annihilation     0.1293,   after     0.0003
 Variable Step   Value    
 -------- ---- -----------
     1       4   10.506877
 ------------------------------------------------------------------------
                         Z-MATRIX (ANGSTROMS AND DEGREES)
 CD Cent Atom  N1     Length/X     N2    Alpha/Y     N3     Beta/Z      J
 ------------------------------------------------------------------------
   1   1  S 
   2   2  H     1   5.560000(  1)
   3   3  H     1   5.560000(  2)   2   92.110(  3)
 ------------------------------------------------------------------------
                         Z-Matrix orientation:                         
 ---------------------------------------------------------------------
 Center     Atomic     Atomic              Coordinates (Angstroms)
 Number     Number      Type              X           Y           Z
 ---------------------------------------------------------------------
    1         16             0        0.000000    0.000000    0.000000
    2          1             0        0.000000    0.000000    5.560000
    3          1             0        5.556230    0.000000   -0.204709
 ---------------------------------------------------------------------
                    Distance matrix (angstroms):
                    1          2          3
     1  S    0.000000
     2  H    5.560000   0.000000
     3  H    5.560000   8.006470   0.000000
                           Interatomic angles:
       H2-S1-H3= 92.11  
 Stoichiometry    H2S
 Framework group  C2V[C2(S),SGV(H2)]
 Deg. of freedom     2
 Full point group                 C2V     NOp   4
 Largest Abelian subgroup         C2V     NOp   4
 Largest concise Abelian subgroup C2      NOp   2
                         Standard orientation:                         
 ---------------------------------------------------------------------
 Center     Atomic     Atomic              Coordinates (Angstroms)
 Number     Number      Type              X           Y           Z
 ---------------------------------------------------------------------
    1         16             0        0.000000    0.000000    0.428718
    2          1             0        0.000000    4.003235   -3.429742
    3          1             0        0.000000   -4.003235   -3.429742
 ---------------------------------------------------------------------
 Rotational constants (GHZ):     17.9029849     15.6451557      8.3490465
 Standard basis: 6-31G (6D, 7F)
 There are     9 symmetry adapted basis functions of A1  symmetry.
 There are     0 symmetry adapted basis functions of A2  symmetry.
 There are     3 symmetry adapted basis functions of B1  symmetry.
 There are     5 symmetry adapted basis functions of B2  symmetry.
 Integral buffers will be    262144 words long.
 Raffenetti 2 integral format.
 Two-electron integral symmetry is turned on.
    17 basis functions,    54 primitive gaussians,    17 cartesian basis functions
     9 alpha electrons        9 beta electrons
       nuclear repulsion energy         3.1117179184 Hartrees.
 NAtoms=    3 NActive=    3 NUniq=    2 SFac= 2.76D+00 NAtFMM=   60 Big=F
 One-electron integrals computed using PRISM.
 NBasis=    17 RedAO= T  NBF=     9     0     3     5
 NBsUse=    17 1.00D-06 NBFU=     9     0     3     5
 SCF N**3 symmetry information disabled.
 Initial guess read from the read-write file:
 Initial guess orbital symmetries:
 Alpha Orbitals:
       Occupied  (A1) (A1) (A1) (B2) (B1) (A1) (B2) (B1) (A1)
       Virtual   (B2) (A1) (A1) (A1) (B2) (B1) (B2) (A1)
 Beta  Orbitals:
       Occupied  (A1) (A1) (A1) (B2) (B1) (A1) (B1) (B2) (A1)
       Virtual   (B2) (A1) (A1) (A1) (B2) (B1) (B2) (A1)
 <S**2> of initial guess= 0.1293
 Harris functional with IExCor=  402 diagonalized for initial guess.
 ExpMin= 1.17D-01 ExpMax= 2.19D+04 ExpMxC= 3.30D+03 IAcc=1 IRadAn=         1 AccDes= 1.00D-06
 HarFok:  IExCor= 402 AccDes= 1.00D-06 IRadAn=         1 IDoV=1
 ScaDFX=  1.000000  1.000000  1.000000  1.000000
 Requested convergence on RMS density matrix=1.00D-08 within 128 cycles.
 Requested convergence on MAX density matrix=1.00D-06.
 Requested convergence on             energy=1.00D-06.
 No special actions if energy rises.
 Keep R1 and R2 integrals in memory in canonical form, NReq=      469656.
 Integral accuracy reduced to 1.0D-05 until final iterations.
 EnCoef did     1 forward-backward iterations
 Restarting incremental Fock formation.
 Problem detected with inexpensive integrals.
 Switching to full accuracy and repeating last cycle.
 Rare condition: small coef for last iteration:  0.000D+00
 Rare condition: small coef for last iteration:  0.000D+00
 SCF Done:  E(UB+HF-LYP) =  -399.101214110     A.U. after   40 cycles
             Convg  =    0.2593D-08             -V/T =  2.0018
             S**2   =   2.0007
 Annihilation of the first spin contaminant:
 S**2 before annihilation     2.0007,   after     4.0076
 Variable Step   Value    
 -------- ---- -----------
     1       5   10.299007
 ------------------------------------------------------------------------
                         Z-MATRIX (ANGSTROMS AND DEGREES)
 CD Cent Atom  N1     Length/X     N2    Alpha/Y     N3     Beta/Z      J
 ------------------------------------------------------------------------
   1   1  S 
   2   2  H     1   5.450000(  1)
   3   3  H     1   5.450000(  2)   2   92.110(  3)
 ------------------------------------------------------------------------
                         Z-Matrix orientation:                         
 ---------------------------------------------------------------------
 Center     Atomic     Atomic              Coordinates (Angstroms)
 Number     Number      Type              X           Y           Z
 ---------------------------------------------------------------------
    1         16             0        0.000000    0.000000    0.000000
    2          1             0        0.000000    0.000000    5.450000
    3          1             0        5.446305    0.000000   -0.200659
 ---------------------------------------------------------------------
                    Distance matrix (angstroms):
                    1          2          3
     1  S    0.000000
     2  H    5.450000   0.000000
     3  H    5.450000   7.848069   0.000000
                           Interatomic angles:
       H2-S1-H3= 92.11  
 Stoichiometry    H2S
 Framework group  C2V[C2(S),SGV(H2)]
 Deg. of freedom     2
 Full point group                 C2V     NOp   4
 Largest Abelian subgroup         C2V     NOp   4
 Largest concise Abelian subgroup C2      NOp   2
                         Standard orientation:                         
 ---------------------------------------------------------------------
 Center     Atomic     Atomic              Coordinates (Angstroms)
 Number     Number      Type              X           Y           Z
 ---------------------------------------------------------------------
    1         16             0        0.000000    0.000000    0.420236
    2          1             0        0.000000    3.924034   -3.361887
    3          1             0        0.000000   -3.924034   -3.361887
 ---------------------------------------------------------------------
 Rotational constants (GHZ):     18.6329673     16.2830767      8.6894734
 Standard basis: 6-31G (6D, 7F)
 There are     9 symmetry adapted basis functions of A1  symmetry.
 There are     0 symmetry adapted basis functions of A2  symmetry.
 There are     3 symmetry adapted basis functions of B1  symmetry.
 There are     5 symmetry adapted basis functions of B2  symmetry.
 Integral buffers will be    262144 words long.
 Raffenetti 2 integral format.
 Two-electron integral symmetry is turned on.
    17 basis functions,    54 primitive gaussians,    17 cartesian basis functions
     9 alpha electrons        9 beta electrons
       nuclear repulsion energy         3.1745232342 Hartrees.
 NAtoms=    3 NActive=    3 NUniq=    2 SFac= 2.76D+00 NAtFMM=   60 Big=F
 One-electron integrals computed using PRISM.
 NBasis=    17 RedAO= T  NBF=     9     0     3     5
 NBsUse=    17 1.00D-06 NBFU=     9     0     3     5
 SCF N**3 symmetry information disabled.
 Initial guess read from the read-write file:
 Initial guess orbital symmetries:
 Alpha Orbitals:
       Occupied  (A1) (A1) (A1) (B2) (B1) (A1) (A1) (B2) (B1)
       Virtual   (B2) (A1) (A1) (B1) (A1) (B2) (B2) (A1)
 Beta  Orbitals:
       Occupied  (A1) (A1) (A1) (B2) (B1) (A1) (B2) (A1) (B1)
       Virtual   (A1) (B2) (A1) (B2) (A1) (B1) (B2) (A1)
 <S**2> of initial guess= 2.0007
 Harris functional with IExCor=  402 diagonalized for initial guess.
 ExpMin= 1.17D-01 ExpMax= 2.19D+04 ExpMxC= 3.30D+03 IAcc=1 IRadAn=         1 AccDes= 1.00D-06
 HarFok:  IExCor= 402 AccDes= 1.00D-06 IRadAn=         1 IDoV=1
 ScaDFX=  1.000000  1.000000  1.000000  1.000000
 Requested convergence on RMS density matrix=1.00D-08 within 128 cycles.
 Requested convergence on MAX density matrix=1.00D-06.
 Requested convergence on             energy=1.00D-06.
 No special actions if energy rises.
 Keep R1 and R2 integrals in memory in canonical form, NReq=      469656.
 Integral accuracy reduced to 1.0D-05 until final iterations.
 Initial convergence to 1.0D-05 achieved.  Increase integral accuracy.
 SCF Done:  E(UB+HF-LYP) =  -399.101225035     A.U. after    8 cycles
             Convg  =    0.1114D-08             -V/T =  2.0018
             S**2   =   2.0006
 Annihilation of the first spin contaminant:
 S**2 before annihilation     2.0006,   after     4.0075
 Variable Step   Value    
 -------- ---- -----------
     1       6   10.091138
 ------------------------------------------------------------------------
                         Z-MATRIX (ANGSTROMS AND DEGREES)
 CD Cent Atom  N1     Length/X     N2    Alpha/Y     N3     Beta/Z      J
 ------------------------------------------------------------------------
   1   1  S 
   2   2  H     1   5.340000(  1)
   3   3  H     1   5.340000(  2)   2   92.110(  3)
 ------------------------------------------------------------------------
                         Z-Matrix orientation:                         
 ---------------------------------------------------------------------
 Center     Atomic     Atomic              Coordinates (Angstroms)
 Number     Number      Type              X           Y           Z
 ---------------------------------------------------------------------
    1         16             0        0.000000    0.000000    0.000000
    2          1             0        0.000000    0.000000    5.340000
    3          1             0        5.336379    0.000000   -0.196609
 ---------------------------------------------------------------------
                    Distance matrix (angstroms):
                    1          2          3
     1  S    0.000000
     2  H    5.340000   0.000000
     3  H    5.340000   7.689667   0.000000
                           Interatomic angles:
       H2-S1-H3= 92.11  
 Stoichiometry    H2S
 Framework group  C2V[C2(S),SGV(H2)]
 Deg. of freedom     2
 Full point group                 C2V     NOp   4
 Largest Abelian subgroup         C2V     NOp   4
 Largest concise Abelian subgroup C2      NOp   2
                         Standard orientation:                         
 ---------------------------------------------------------------------
 Center     Atomic     Atomic              Coordinates (Angstroms)
 Number     Number      Type              X           Y           Z
 ---------------------------------------------------------------------
    1         16             0        0.000000    0.000000    0.411754
    2          1             0        0.000000    3.844834   -3.294033
    3          1             0        0.000000   -3.844834   -3.294033
 ---------------------------------------------------------------------
 Rotational constants (GHZ):     19.4085242     16.9608245      9.0511539
 Standard basis: 6-31G (6D, 7F)
 There are     9 symmetry adapted basis functions of A1  symmetry.
 There are     0 symmetry adapted basis functions of A2  symmetry.
 There are     3 symmetry adapted basis functions of B1  symmetry.
 There are     5 symmetry adapted basis functions of B2  symmetry.
 Integral buffers will be    262144 words long.
 Raffenetti 2 integral format.
 Two-electron integral symmetry is turned on.
    17 basis functions,    54 primitive gaussians,    17 cartesian basis functions
     9 alpha electrons        9 beta electrons
       nuclear repulsion energy         3.2399160349 Hartrees.
 NAtoms=    3 NActive=    3 NUniq=    2 SFac= 2.76D+00 NAtFMM=   60 Big=F
 One-electron integrals computed using PRISM.
 NBasis=    17 RedAO= T  NBF=     9     0     3     5
 NBsUse=    17 1.00D-06 NBFU=     9     0     3     5
 SCF N**3 symmetry information disabled.
 Initial guess read from the read-write file:
 Initial guess orbital symmetries:
 Alpha Orbitals:
       Occupied  (A1) (A1) (A1) (B2) (B1) (A1) (A1) (B2) (B1)
       Virtual   (B2) (A1) (A1) (B1) (A1) (B2) (B2) (A1)
 Beta  Orbitals:
       Occupied  (A1) (A1) (A1) (B2) (B1) (A1) (B2) (A1) (B1)
       Virtual   (A1) (B2) (A1) (B2) (A1) (B1) (B2) (A1)
 <S**2> of initial guess= 2.0006
 Harris functional with IExCor=  402 diagonalized for initial guess.
 ExpMin= 1.17D-01 ExpMax= 2.19D+04 ExpMxC= 3.30D+03 IAcc=1 IRadAn=         1 AccDes= 1.00D-06
 HarFok:  IExCor= 402 AccDes= 1.00D-06 IRadAn=         1 IDoV=1
 ScaDFX=  1.000000  1.000000  1.000000  1.000000
 Requested convergence on RMS density matrix=1.00D-08 within 128 cycles.
 Requested convergence on MAX density matrix=1.00D-06.
 Requested convergence on             energy=1.00D-06.
 No special actions if energy rises.
 Keep R1 and R2 integrals in memory in canonical form, NReq=      469656.
 Integral accuracy reduced to 1.0D-05 until final iterations.
 Initial convergence to 1.0D-05 achieved.  Increase integral accuracy.
 SCF Done:  E(UB+HF-LYP) =  -399.101235949     A.U. after    9 cycles
             Convg  =    0.1610D-08             -V/T =  2.0018
             S**2   =   2.0006
 Annihilation of the first spin contaminant:
 S**2 before annihilation     2.0006,   after     4.0075
 Variable Step   Value    
 -------- ---- -----------
     1       7    9.883268
 ------------------------------------------------------------------------
                         Z-MATRIX (ANGSTROMS AND DEGREES)
 CD Cent Atom  N1     Length/X     N2    Alpha/Y     N3     Beta/Z      J
 ------------------------------------------------------------------------
   1   1  S 
   2   2  H     1   5.230000(  1)
   3   3  H     1   5.230000(  2)   2   92.110(  3)
 ------------------------------------------------------------------------
                         Z-Matrix orientation:                         
 ---------------------------------------------------------------------
 Center     Atomic     Atomic              Coordinates (Angstroms)
 Number     Number      Type              X           Y           Z
 ---------------------------------------------------------------------
    1         16             0        0.000000    0.000000    0.000000
    2          1             0        0.000000    0.000000    5.230000
    3          1             0        5.226454    0.000000   -0.192559
 ---------------------------------------------------------------------
                    Distance matrix (angstroms):
                    1          2          3
     1  S    0.000000
     2  H    5.230000   0.000000
     3  H    5.230000   7.531266   0.000000
                           Interatomic angles:
       H2-S1-H3= 92.11  
 Stoichiometry    H2S
 Framework group  C2V[C2(S),SGV(H2)]
 Deg. of freedom     2
 Full point group                 C2V     NOp   4
 Largest Abelian subgroup         C2V     NOp   4
 Largest concise Abelian subgroup C2      NOp   2
                         Standard orientation:                         
 ---------------------------------------------------------------------
 Center     Atomic     Atomic              Coordinates (Angstroms)
 Number     Number      Type              X           Y           Z
 ---------------------------------------------------------------------
    1         16             0        0.000000    0.000000    0.403272
    2          1             0        0.000000    3.765633   -3.226178
    3          1             0        0.000000   -3.765633   -3.226178
 ---------------------------------------------------------------------
 Rotational constants (GHZ):     20.2335296     17.6817846      9.4358947
 Standard basis: 6-31G (6D, 7F)
 There are     9 symmetry adapted basis functions of A1  symmetry.
 There are     0 symmetry adapted basis functions of A2  symmetry.
 There are     3 symmetry adapted basis functions of B1  symmetry.
 There are     5 symmetry adapted basis functions of B2  symmetry.
 Integral buffers will be    262144 words long.
 Raffenetti 2 integral format.
 Two-electron integral symmetry is turned on.
    17 basis functions,    54 primitive gaussians,    17 cartesian basis functions
     9 alpha electrons        9 beta electrons
       nuclear repulsion energy         3.3080595844 Hartrees.
 NAtoms=    3 NActive=    3 NUniq=    2 SFac= 2.76D+00 NAtFMM=   60 Big=F
 One-electron integrals computed using PRISM.
 NBasis=    17 RedAO= T  NBF=     9     0     3     5
 NBsUse=    17 1.00D-06 NBFU=     9     0     3     5
 SCF N**3 symmetry information disabled.
 Initial guess read from the read-write file:
 Initial guess orbital symmetries:
 Alpha Orbitals:
       Occupied  (A1) (A1) (A1) (B2) (B1) (A1) (A1) (B2) (B1)
       Virtual   (A1) (B2) (A1) (B1) (A1) (B2) (B2) (A1)
 Beta  Orbitals:
       Occupied  (A1) (A1) (A1) (B2) (B1) (A1) (B2) (A1) (B1)
       Virtual   (A1) (B2) (A1) (B2) (A1) (B1) (B2) (A1)
 <S**2> of initial guess= 2.0006
 Harris functional with IExCor=  402 diagonalized for initial guess.
 ExpMin= 1.17D-01 ExpMax= 2.19D+04 ExpMxC= 3.30D+03 IAcc=1 IRadAn=         1 AccDes= 1.00D-06
 HarFok:  IExCor= 402 AccDes= 1.00D-06 IRadAn=         1 IDoV=1
 ScaDFX=  1.000000  1.000000  1.000000  1.000000
 Requested convergence on RMS density matrix=1.00D-08 within 128 cycles.
 Requested convergence on MAX density matrix=1.00D-06.
 Requested convergence on             energy=1.00D-06.
 No special actions if energy rises.
 Keep R1 and R2 integrals in memory in canonical form, NReq=      469656.
 Integral accuracy reduced to 1.0D-05 until final iterations.
 Initial convergence to 1.0D-05 achieved.  Increase integral accuracy.
 SCF Done:  E(UB+HF-LYP) =  -399.101240036     A.U. after    9 cycles
             Convg  =    0.2156D-08             -V/T =  2.0018
             S**2   =   2.0005
 Annihilation of the first spin contaminant:
 S**2 before annihilation     2.0005,   after     4.0073
 Variable Step   Value    
 -------- ---- -----------
     1       8    9.675398
 ------------------------------------------------------------------------
                         Z-MATRIX (ANGSTROMS AND DEGREES)
 CD Cent Atom  N1     Length/X     N2    Alpha/Y     N3     Beta/Z      J
 ------------------------------------------------------------------------
   1   1  S 
   2   2  H     1   5.120000(  1)
   3   3  H     1   5.120000(  2)   2   92.110(  3)
 ------------------------------------------------------------------------
                         Z-Matrix orientation:                         
 ---------------------------------------------------------------------
 Center     Atomic     Atomic              Coordinates (Angstroms)
 Number     Number      Type              X           Y           Z
 ---------------------------------------------------------------------
    1         16             0        0.000000    0.000000    0.000000
    2          1             0        0.000000    0.000000    5.120000
    3          1             0        5.116529    0.000000   -0.188509
 ---------------------------------------------------------------------
                    Distance matrix (angstroms):
                    1          2          3
     1  S    0.000000
     2  H    5.120000   0.000000
     3  H    5.120000   7.372864   0.000000
                           Interatomic angles:
       H2-S1-H3= 92.11  
 Stoichiometry    H2S
 Framework group  C2V[C2(S),SGV(H2)]
 Deg. of freedom     2
 Full point group                 C2V     NOp   4
 Largest Abelian subgroup         C2V     NOp   4
 Largest concise Abelian subgroup C2      NOp   2
                         Standard orientation:                         
 ---------------------------------------------------------------------
 Center     Atomic     Atomic              Coordinates (Angstroms)
 Number     Number      Type              X           Y           Z
 ---------------------------------------------------------------------
    1         16             0        0.000000    0.000000    0.394790
    2          1             0        0.000000    3.686432   -3.158323
    3          1             0        0.000000   -3.686432   -3.158323
 ---------------------------------------------------------------------
 Rotational constants (GHZ):     21.1122785     18.4497103      9.8456987
 Standard basis: 6-31G (6D, 7F)
 There are     9 symmetry adapted basis functions of A1  symmetry.
 There are     0 symmetry adapted basis functions of A2  symmetry.
 There are     3 symmetry adapted basis functions of B1  symmetry.
 There are     5 symmetry adapted basis functions of B2  symmetry.
 Integral buffers will be    262144 words long.
 Raffenetti 2 integral format.
 Two-electron integral symmetry is turned on.
    17 basis functions,    54 primitive gaussians,    17 cartesian basis functions
     9 alpha electrons        9 beta electrons
       nuclear repulsion energy         3.3791311770 Hartrees.
 NAtoms=    3 NActive=    3 NUniq=    2 SFac= 2.76D+00 NAtFMM=   60 Big=F
 One-electron integrals computed using PRISM.
 NBasis=    17 RedAO= T  NBF=     9     0     3     5
 NBsUse=    17 1.00D-06 NBFU=     9     0     3     5
 SCF N**3 symmetry information disabled.
 Initial guess read from the read-write file:
 Initial guess orbital symmetries:
 Alpha Orbitals:
       Occupied  (A1) (A1) (A1) (B2) (B1) (A1) (A1) (B2) (B1)
       Virtual   (A1) (B2) (A1) (B1) (A1) (B2) (B2) (A1)
 Beta  Orbitals:
       Occupied  (A1) (A1) (A1) (B2) (B1) (A1) (B2) (A1) (B1)
       Virtual   (A1) (B2) (A1) (B2) (A1) (B1) (B2) (A1)
 <S**2> of initial guess= 2.0005
 Harris functional with IExCor=  402 diagonalized for initial guess.
 ExpMin= 1.17D-01 ExpMax= 2.19D+04 ExpMxC= 3.30D+03 IAcc=1 IRadAn=         1 AccDes= 1.00D-06
 HarFok:  IExCor= 402 AccDes= 1.00D-06 IRadAn=         1 IDoV=1
 ScaDFX=  1.000000  1.000000  1.000000  1.000000
 Requested convergence on RMS density matrix=1.00D-08 within 128 cycles.
 Requested convergence on MAX density matrix=1.00D-06.
 Requested convergence on             energy=1.00D-06.
 No special actions if energy rises.
 Keep R1 and R2 integrals in memory in canonical form, NReq=      469506.
 Integral accuracy reduced to 1.0D-05 until final iterations.
 Initial convergence to 1.0D-05 achieved.  Increase integral accuracy.
 SCF Done:  E(UB+HF-LYP) =  -399.101239871     A.U. after    9 cycles
             Convg  =    0.2122D-08             -V/T =  2.0018
             S**2   =   2.0005
 Annihilation of the first spin contaminant:
 S**2 before annihilation     2.0005,   after     4.0072
 Variable Step   Value    
 -------- ---- -----------
     1       9    9.467528
 ------------------------------------------------------------------------
                         Z-MATRIX (ANGSTROMS AND DEGREES)
 CD Cent Atom  N1     Length/X     N2    Alpha/Y     N3     Beta/Z      J
 ------------------------------------------------------------------------
   1   1  S 
   2   2  H     1   5.010000(  1)
   3   3  H     1   5.010000(  2)   2   92.110(  3)
 ------------------------------------------------------------------------
                         Z-Matrix orientation:                         
 ---------------------------------------------------------------------
 Center     Atomic     Atomic              Coordinates (Angstroms)
 Number     Number      Type              X           Y           Z
 ---------------------------------------------------------------------
    1         16             0        0.000000    0.000000    0.000000
    2          1             0        0.000000    0.000000    5.010000
    3          1             0        5.006603    0.000000   -0.184459
 ---------------------------------------------------------------------
                    Distance matrix (angstroms):
                    1          2          3
     1  S    0.000000
     2  H    5.010000   0.000000
     3  H    5.010000   7.214463   0.000000
                           Interatomic angles:
       H2-S1-H3= 92.11  
 Stoichiometry    H2S
 Framework group  C2V[C2(S),SGV(H2)]
 Deg. of freedom     2
 Full point group                 C2V     NOp   4
 Largest Abelian subgroup         C2V     NOp   4
 Largest concise Abelian subgroup C2      NOp   2
                         Standard orientation:                         
 ---------------------------------------------------------------------
 Center     Atomic     Atomic              Coordinates (Angstroms)
 Number     Number      Type              X           Y           Z
 ---------------------------------------------------------------------
    1         16             0        0.000000    0.000000    0.386309
    2          1             0        0.000000    3.607232   -3.090469
    3          1             0        0.000000   -3.607232   -3.090469
 ---------------------------------------------------------------------
 Rotational constants (GHZ):     22.0495421     19.2687713     10.2827911
 Standard basis: 6-31G (6D, 7F)
 There are     9 symmetry adapted basis functions of A1  symmetry.
 There are     0 symmetry adapted basis functions of A2  symmetry.
 There are     3 symmetry adapted basis functions of B1  symmetry.
 There are     5 symmetry adapted basis functions of B2  symmetry.
 Integral buffers will be    262144 words long.
 Raffenetti 2 integral format.
 Two-electron integral symmetry is turned on.
    17 basis functions,    54 primitive gaussians,    17 cartesian basis functions
     9 alpha electrons        9 beta electrons
       nuclear repulsion energy         3.4533236779 Hartrees.
 NAtoms=    3 NActive=    3 NUniq=    2 SFac= 2.76D+00 NAtFMM=   60 Big=F
 One-electron integrals computed using PRISM.
 NBasis=    17 RedAO= T  NBF=     9     0     3     5
 NBsUse=    17 1.00D-06 NBFU=     9     0     3     5
 SCF N**3 symmetry information disabled.
 Initial guess read from the read-write file:
 Initial guess orbital symmetries:
 Alpha Orbitals:
       Occupied  (A1) (A1) (A1) (B2) (B1) (A1) (A1) (B2) (B1)
       Virtual   (A1) (B2) (A1) (B1) (B2) (A1) (B2) (A1)
 Beta  Orbitals:
       Occupied  (A1) (A1) (A1) (B2) (B1) (A1) (B2) (A1) (B1)
       Virtual   (A1) (B2) (A1) (B2) (A1) (B1) (B2) (A1)
 <S**2> of initial guess= 2.0004
 Harris functional with IExCor=  402 diagonalized for initial guess.
 ExpMin= 1.17D-01 ExpMax= 2.19D+04 ExpMxC= 3.30D+03 IAcc=1 IRadAn=         1 AccDes= 1.00D-06
 HarFok:  IExCor= 402 AccDes= 1.00D-06 IRadAn=         1 IDoV=1
 ScaDFX=  1.000000  1.000000  1.000000  1.000000
 Requested convergence on RMS density matrix=1.00D-08 within 128 cycles.
 Requested convergence on MAX density matrix=1.00D-06.
 Requested convergence on             energy=1.00D-06.
 No special actions if energy rises.
 Keep R1 and R2 integrals in memory in canonical form, NReq=      469506.
 Integral accuracy reduced to 1.0D-05 until final iterations.
 Initial convergence to 1.0D-05 achieved.  Increase integral accuracy.
 SCF Done:  E(UB+HF-LYP) =  -399.101245006     A.U. after    9 cycles
             Convg  =    0.1553D-08             -V/T =  2.0018
             S**2   =   2.0003
 Annihilation of the first spin contaminant:
 S**2 before annihilation     2.0003,   after     4.0069
 Variable Step   Value    
 -------- ---- -----------
     1      10    9.259658
 ------------------------------------------------------------------------
                         Z-MATRIX (ANGSTROMS AND DEGREES)
 CD Cent Atom  N1     Length/X     N2    Alpha/Y     N3     Beta/Z      J
 ------------------------------------------------------------------------
   1   1  S 
   2   2  H     1   4.900000(  1)
   3   3  H     1   4.900000(  2)   2   92.110(  3)
 ------------------------------------------------------------------------
                         Z-Matrix orientation:                         
 ---------------------------------------------------------------------
 Center     Atomic     Atomic              Coordinates (Angstroms)
 Number     Number      Type              X           Y           Z
 ---------------------------------------------------------------------
    1         16             0        0.000000    0.000000    0.000000
    2          1             0        0.000000    0.000000    4.900000
    3          1             0        4.896678    0.000000   -0.180409
 ---------------------------------------------------------------------
                    Distance matrix (angstroms):
                    1          2          3
     1  S    0.000000
     2  H    4.900000   0.000000
     3  H    4.900000   7.056062   0.000000
                           Interatomic angles:
       H2-S1-H3= 92.11  
 Stoichiometry    H2S
 Framework group  C2V[C2(S),SGV(H2)]
 Deg. of freedom     2
 Full point group                 C2V     NOp   4
 Largest Abelian subgroup         C2V     NOp   4
 Largest concise Abelian subgroup C2      NOp   2
                         Standard orientation:                         
 ---------------------------------------------------------------------
 Center     Atomic     Atomic              Coordinates (Angstroms)
 Number     Number      Type              X           Y           Z
 ---------------------------------------------------------------------
    1         16             0        0.000000    0.000000    0.377827
    2          1             0        0.000000    3.528031   -3.022614
    3          1             0        0.000000   -3.528031   -3.022614
 ---------------------------------------------------------------------
 Rotational constants (GHZ):     23.0506336     20.1436104     10.7496495
 Standard basis: 6-31G (6D, 7F)
 There are     9 symmetry adapted basis functions of A1  symmetry.
 There are     0 symmetry adapted basis functions of A2  symmetry.
 There are     3 symmetry adapted basis functions of B1  symmetry.
 There are     5 symmetry adapted basis functions of B2  symmetry.
 Integral buffers will be    262144 words long.
 Raffenetti 2 integral format.
 Two-electron integral symmetry is turned on.
    17 basis functions,    54 primitive gaussians,    17 cartesian basis functions
     9 alpha electrons        9 beta electrons
       nuclear repulsion energy         3.5308472706 Hartrees.
 NAtoms=    3 NActive=    3 NUniq=    2 SFac= 2.76D+00 NAtFMM=   60 Big=F
 One-electron integrals computed using PRISM.
 NBasis=    17 RedAO= T  NBF=     9     0     3     5
 NBsUse=    17 1.00D-06 NBFU=     9     0     3     5
 SCF N**3 symmetry information disabled.
 Initial guess read from the read-write file:
 Initial guess orbital symmetries:
 Alpha Orbitals:
       Occupied  (A1) (A1) (A1) (B2) (B1) (A1) (A1) (B2) (B1)
       Virtual   (A1) (B2) (A1) (B1) (A1) (B2) (B2) (A1)
 Beta  Orbitals:
       Occupied  (A1) (A1) (A1) (B2) (B1) (A1) (B2) (A1) (B1)
       Virtual   (A1) (B2) (A1) (B2) (A1) (B1) (B2) (A1)
 <S**2> of initial guess= 2.0003
 Harris functional with IExCor=  402 diagonalized for initial guess.
 ExpMin= 1.17D-01 ExpMax= 2.19D+04 ExpMxC= 3.30D+03 IAcc=1 IRadAn=         1 AccDes= 1.00D-06
 HarFok:  IExCor= 402 AccDes= 1.00D-06 IRadAn=         1 IDoV=1
 ScaDFX=  1.000000  1.000000  1.000000  1.000000
 Requested convergence on RMS density matrix=1.00D-08 within 128 cycles.
 Requested convergence on MAX density matrix=1.00D-06.
 Requested convergence on             energy=1.00D-06.
 No special actions if energy rises.
 Keep R1 and R2 integrals in memory in canonical form, NReq=      469506.
 Integral accuracy reduced to 1.0D-05 until final iterations.
 Initial convergence to 1.0D-05 achieved.  Increase integral accuracy.
 SCF Done:  E(UB+HF-LYP) =  -399.101265397     A.U. after    9 cycles
             Convg  =    0.1829D-08             -V/T =  2.0018
             S**2   =   2.0001
 Annihilation of the first spin contaminant:
 S**2 before annihilation     2.0001,   after     4.0065
 Variable Step   Value    
 -------- ---- -----------
     1      11    9.051788
 ------------------------------------------------------------------------
                         Z-MATRIX (ANGSTROMS AND DEGREES)
 CD Cent Atom  N1     Length/X     N2    Alpha/Y     N3     Beta/Z      J
 ------------------------------------------------------------------------
   1   1  S 
   2   2  H     1   4.790000(  1)
   3   3  H     1   4.790000(  2)   2   92.110(  3)
 ------------------------------------------------------------------------
                         Z-Matrix orientation:                         
 ---------------------------------------------------------------------
 Center     Atomic     Atomic              Coordinates (Angstroms)
 Number     Number      Type              X           Y           Z
 ---------------------------------------------------------------------
    1         16             0        0.000000    0.000000    0.000000
    2          1             0        0.000000    0.000000    4.790000
    3          1             0        4.786752    0.000000   -0.176359
 ---------------------------------------------------------------------
                    Distance matrix (angstroms):
                    1          2          3
     1  S    0.000000
     2  H    4.790000   0.000000
     3  H    4.790000   6.897660   0.000000
                           Interatomic angles:
       H2-S1-H3= 92.11  
 Stoichiometry    H2S
 Framework group  C2V[C2(S),SGV(H2)]
 Deg. of freedom     2
 Full point group                 C2V     NOp   4
 Largest Abelian subgroup         C2V     NOp   4
 Largest concise Abelian subgroup C2      NOp   2
                         Standard orientation:                         
 ---------------------------------------------------------------------
 Center     Atomic     Atomic              Coordinates (Angstroms)
 Number     Number      Type              X           Y           Z
 ---------------------------------------------------------------------
    1         16             0        0.000000    0.000000    0.369345
    2          1             0        0.000000    3.448830   -2.954760
    3          1             0        0.000000   -3.448830   -2.954760
 ---------------------------------------------------------------------
 Rotational constants (GHZ):     24.1214828     21.0794098     11.2490394
 Standard basis: 6-31G (6D, 7F)
 There are     9 symmetry adapted basis functions of A1  symmetry.
 There are     0 symmetry adapted basis functions of A2  symmetry.
 There are     3 symmetry adapted basis functions of B1  symmetry.
 There are     5 symmetry adapted basis functions of B2  symmetry.
 Integral buffers will be    262144 words long.
 Raffenetti 2 integral format.
 Two-electron integral symmetry is turned on.
    17 basis functions,    54 primitive gaussians,    17 cartesian basis functions
     9 alpha electrons        9 beta electrons
       nuclear repulsion energy         3.6119314460 Hartrees.
 NAtoms=    3 NActive=    3 NUniq=    2 SFac= 2.76D+00 NAtFMM=   60 Big=F
 One-electron integrals computed using PRISM.
 NBasis=    17 RedAO= T  NBF=     9     0     3     5
 NBsUse=    17 1.00D-06 NBFU=     9     0     3     5
 SCF N**3 symmetry information disabled.
 Initial guess read from the read-write file:
 Initial guess orbital symmetries:
 Alpha Orbitals:
       Occupied  (A1) (A1) (B2) (A1) (B1) (A1) (A1) (B2) (B1)
       Virtual   (A1) (B2) (A1) (B1) (B2) (A1) (B2) (A1)
 Beta  Orbitals:
       Occupied  (A1) (A1) (B2) (A1) (B1) (A1) (B2) (A1) (B1)
       Virtual   (A1) (B2) (A1) (B2) (A1) (B1) (B2) (A1)
 <S**2> of initial guess= 2.0001
 Harris functional with IExCor=  402 diagonalized for initial guess.
 ExpMin= 1.17D-01 ExpMax= 2.19D+04 ExpMxC= 3.30D+03 IAcc=1 IRadAn=         1 AccDes= 1.00D-06
 HarFok:  IExCor= 402 AccDes= 1.00D-06 IRadAn=         1 IDoV=1
 ScaDFX=  1.000000  1.000000  1.000000  1.000000
 Requested convergence on RMS density matrix=1.00D-08 within 128 cycles.
 Requested convergence on MAX density matrix=1.00D-06.
 Requested convergence on             energy=1.00D-06.
 No special actions if energy rises.
 Keep R1 and R2 integrals in memory in canonical form, NReq=      469506.
 Integral accuracy reduced to 1.0D-05 until final iterations.
 Initial convergence to 1.0D-05 achieved.  Increase integral accuracy.
 SCF Done:  E(UB+HF-LYP) =  -399.101303505     A.U. after    9 cycles
             Convg  =    0.2133D-08             -V/T =  2.0018
             S**2   =   1.9999
 Annihilation of the first spin contaminant:
 S**2 before annihilation     1.9999,   after     4.0060
 Variable Step   Value    
 -------- ---- -----------
     1      12    8.843918
 ------------------------------------------------------------------------
                         Z-MATRIX (ANGSTROMS AND DEGREES)
 CD Cent Atom  N1     Length/X     N2    Alpha/Y     N3     Beta/Z      J
 ------------------------------------------------------------------------
   1   1  S 
   2   2  H     1   4.680000(  1)
   3   3  H     1   4.680000(  2)   2   92.110(  3)
 ------------------------------------------------------------------------
                         Z-Matrix orientation:                         
 ---------------------------------------------------------------------
 Center     Atomic     Atomic              Coordinates (Angstroms)
 Number     Number      Type              X           Y           Z
 ---------------------------------------------------------------------
    1         16             0        0.000000    0.000000    0.000000
    2          1             0        0.000000    0.000000    4.680000
    3          1             0        4.676827    0.000000   -0.172309
 ---------------------------------------------------------------------
                    Distance matrix (angstroms):
                    1          2          3
     1  S    0.000000
     2  H    4.680000   0.000000
     3  H    4.680000   6.739259   0.000000
                           Interatomic angles:
       H2-S1-H3= 92.11  
 Stoichiometry    H2S
 Framework group  C2V[C2(S),SGV(H2)]
 Deg. of freedom     2
 Full point group                 C2V     NOp   4
 Largest Abelian subgroup         C2V     NOp   4
 Largest concise Abelian subgroup C2      NOp   2
                         Standard orientation:                         
 ---------------------------------------------------------------------
 Center     Atomic     Atomic              Coordinates (Angstroms)
 Number     Number      Type              X           Y           Z
 ---------------------------------------------------------------------
    1         16             0        0.000000    0.000000    0.360863
    2          1             0        0.000000    3.369629   -2.886905
    3          1             0        0.000000   -3.369629   -2.886905
 ---------------------------------------------------------------------
 Rotational constants (GHZ):     25.2687246     22.0819675     11.7840549
 Standard basis: 6-31G (6D, 7F)
 There are     9 symmetry adapted basis functions of A1  symmetry.
 There are     0 symmetry adapted basis functions of A2  symmetry.
 There are     3 symmetry adapted basis functions of B1  symmetry.
 There are     5 symmetry adapted basis functions of B2  symmetry.
 Integral buffers will be    262144 words long.
 Raffenetti 2 integral format.
 Two-electron integral symmetry is turned on.
    17 basis functions,    54 primitive gaussians,    17 cartesian basis functions
     9 alpha electrons        9 beta electrons
       nuclear repulsion energy         3.6968272705 Hartrees.
 NAtoms=    3 NActive=    3 NUniq=    2 SFac= 2.76D+00 NAtFMM=   60 Big=F
 One-electron integrals computed using PRISM.
 NBasis=    17 RedAO= T  NBF=     9     0     3     5
 NBsUse=    17 1.00D-06 NBFU=     9     0     3     5
 SCF N**3 symmetry information disabled.
 Initial guess read from the read-write file:
 Initial guess orbital symmetries:
 Alpha Orbitals:
       Occupied  (A1) (A1) (B2) (A1) (B1) (A1) (A1) (B2) (B1)
       Virtual   (A1) (B2) (A1) (B1) (A1) (B2) (B2) (A1)
 Beta  Orbitals:
       Occupied  (A1) (A1) (B2) (A1) (B1) (A1) (B2) (A1) (B1)
       Virtual   (A1) (B2) (A1) (B2) (A1) (B1) (B2) (A1)
 <S**2> of initial guess= 1.9998
 Harris functional with IExCor=  402 diagonalized for initial guess.
 ExpMin= 1.17D-01 ExpMax= 2.19D+04 ExpMxC= 3.30D+03 IAcc=1 IRadAn=         1 AccDes= 1.00D-06
 HarFok:  IExCor= 402 AccDes= 1.00D-06 IRadAn=         1 IDoV=1
 ScaDFX=  1.000000  1.000000  1.000000  1.000000
 Requested convergence on RMS density matrix=1.00D-08 within 128 cycles.
 Requested convergence on MAX density matrix=1.00D-06.
 Requested convergence on             energy=1.00D-06.
 No special actions if energy rises.
 Keep R1 and R2 integrals in memory in canonical form, NReq=      469506.
 Integral accuracy reduced to 1.0D-05 until final iterations.
 Initial convergence to 1.0D-05 achieved.  Increase integral accuracy.
 SCF Done:  E(UB+HF-LYP) =  -399.101350003     A.U. after    9 cycles
             Convg  =    0.2538D-08             -V/T =  2.0018
             S**2   =   1.9995
 Annihilation of the first spin contaminant:
 S**2 before annihilation     1.9995,   after     4.0052
 Variable Step   Value    
 -------- ---- -----------
     1      13    8.636048
 ------------------------------------------------------------------------
                         Z-MATRIX (ANGSTROMS AND DEGREES)
 CD Cent Atom  N1     Length/X     N2    Alpha/Y     N3     Beta/Z      J
 ------------------------------------------------------------------------
   1   1  S 
   2   2  H     1   4.570000(  1)
   3   3  H     1   4.570000(  2)   2   92.110(  3)
 ------------------------------------------------------------------------
                         Z-Matrix orientation:                         
 ---------------------------------------------------------------------
 Center     Atomic     Atomic              Coordinates (Angstroms)
 Number     Number      Type              X           Y           Z
 ---------------------------------------------------------------------
    1         16             0        0.000000    0.000000    0.000000
    2          1             0        0.000000    0.000000    4.570000
    3          1             0        4.566901    0.000000   -0.168259
 ---------------------------------------------------------------------
                    Distance matrix (angstroms):
                    1          2          3
     1  S    0.000000
     2  H    4.570000   0.000000
     3  H    4.570000   6.580858   0.000000
                           Interatomic angles:
       H2-S1-H3= 92.11  
 Stoichiometry    H2S
 Framework group  C2V[C2(S),SGV(H2)]
 Deg. of freedom     2
 Full point group                 C2V     NOp   4
 Largest Abelian subgroup         C2V     NOp   4
 Largest concise Abelian subgroup C2      NOp   2
                         Standard orientation:                         
 ---------------------------------------------------------------------
 Center     Atomic     Atomic              Coordinates (Angstroms)
 Number     Number      Type              X           Y           Z
 ---------------------------------------------------------------------
    1         16             0        0.000000    0.000000    0.352381
    2          1             0        0.000000    3.290429   -2.819050
    3          1             0        0.000000   -3.290429   -2.819050
 ---------------------------------------------------------------------
 Rotational constants (GHZ):     26.4998019     23.1577880     12.3581671
 Standard basis: 6-31G (6D, 7F)
 There are     9 symmetry adapted basis functions of A1  symmetry.
 There are     0 symmetry adapted basis functions of A2  symmetry.
 There are     3 symmetry adapted basis functions of B1  symmetry.
 There are     5 symmetry adapted basis functions of B2  symmetry.
 Integral buffers will be    262144 words long.
 Raffenetti 2 integral format.
 Two-electron integral symmetry is turned on.
    17 basis functions,    54 primitive gaussians,    17 cartesian basis functions
     9 alpha electrons        9 beta electrons
       nuclear repulsion energy         3.7858099838 Hartrees.
 NAtoms=    3 NActive=    3 NUniq=    2 SFac= 2.76D+00 NAtFMM=   60 Big=F
 One-electron integrals computed using PRISM.
 NBasis=    17 RedAO= T  NBF=     9     0     3     5
 NBsUse=    17 1.00D-06 NBFU=     9     0     3     5
 SCF N**3 symmetry information disabled.
 Initial guess read from the read-write file:
 Initial guess orbital symmetries:
 Alpha Orbitals:
       Occupied  (A1) (A1) (B2) (A1) (B1) (A1) (A1) (B2) (B1)
       Virtual   (A1) (B2) (A1) (B1) (B2) (A1) (B2) (A1)
 Beta  Orbitals:
       Occupied  (A1) (A1) (A1) (B2) (B1) (A1) (B2) (A1) (B1)
       Virtual   (A1) (B2) (A1) (B2) (A1) (B1) (B2) (A1)
 <S**2> of initial guess= 1.9994
 Harris functional with IExCor=  402 diagonalized for initial guess.
 ExpMin= 1.17D-01 ExpMax= 2.19D+04 ExpMxC= 3.30D+03 IAcc=1 IRadAn=         1 AccDes= 1.00D-06
 HarFok:  IExCor= 402 AccDes= 1.00D-06 IRadAn=         1 IDoV=1
 ScaDFX=  1.000000  1.000000  1.000000  1.000000
 Requested convergence on RMS density matrix=1.00D-08 within 128 cycles.
 Requested convergence on MAX density matrix=1.00D-06.
 Requested convergence on             energy=1.00D-06.
 No special actions if energy rises.
 Keep R1 and R2 integrals in memory in canonical form, NReq=      469506.
 Integral accuracy reduced to 1.0D-05 until final iterations.
 Initial convergence to 1.0D-05 achieved.  Increase integral accuracy.
 SCF Done:  E(UB+HF-LYP) =  -399.101399952     A.U. after    9 cycles
             Convg  =    0.2838D-08             -V/T =  2.0018
             S**2   =   1.9990
 Annihilation of the first spin contaminant:
 S**2 before annihilation     1.9990,   after     4.0041
 Variable Step   Value    
 -------- ---- -----------
     1      14    8.428179
 ------------------------------------------------------------------------
                         Z-MATRIX (ANGSTROMS AND DEGREES)
 CD Cent Atom  N1     Length/X     N2    Alpha/Y     N3     Beta/Z      J
 ------------------------------------------------------------------------
   1   1  S 
   2   2  H     1   4.460000(  1)
   3   3  H     1   4.460000(  2)   2   92.110(  3)
 ------------------------------------------------------------------------
                         Z-Matrix orientation:                         
 ---------------------------------------------------------------------
 Center     Atomic     Atomic              Coordinates (Angstroms)
 Number     Number      Type              X           Y           Z
 ---------------------------------------------------------------------
    1         16             0        0.000000    0.000000    0.000000
    2          1             0        0.000000    0.000000    4.460000
    3          1             0        4.456976    0.000000   -0.164209
 ---------------------------------------------------------------------
                    Distance matrix (angstroms):
                    1          2          3
     1  S    0.000000
     2  H    4.460000   0.000000
     3  H    4.460000   6.422456   0.000000
                           Interatomic angles:
       H2-S1-H3= 92.11  
 Stoichiometry    H2S
 Framework group  C2V[C2(S),SGV(H2)]
 Deg. of freedom     2
 Full point group                 C2V     NOp   4
 Largest Abelian subgroup         C2V     NOp   4
 Largest concise Abelian subgroup C2      NOp   2
                         Standard orientation:                         
 ---------------------------------------------------------------------
 Center     Atomic     Atomic              Coordinates (Angstroms)
 Number     Number      Type              X           Y           Z
 ---------------------------------------------------------------------
    1         16             0        0.000000    0.000000    0.343899
    2          1             0        0.000000    3.211228   -2.751196
    3          1             0        0.000000   -3.211228   -2.751196
 ---------------------------------------------------------------------
 Rotational constants (GHZ):     27.8230868     24.3141872     12.9752802
 Standard basis: 6-31G (6D, 7F)
 There are     9 symmetry adapted basis functions of A1  symmetry.
 There are     0 symmetry adapted basis functions of A2  symmetry.
 There are     3 symmetry adapted basis functions of B1  symmetry.
 There are     5 symmetry adapted basis functions of B2  symmetry.
 Integral buffers will be    262144 words long.
 Raffenetti 2 integral format.
 Two-electron integral symmetry is turned on.
    17 basis functions,    54 primitive gaussians,    17 cartesian basis functions
     9 alpha electrons        9 beta electrons
       nuclear repulsion energy         3.8791819790 Hartrees.
 NAtoms=    3 NActive=    3 NUniq=    2 SFac= 2.76D+00 NAtFMM=   60 Big=F
 One-electron integrals computed using PRISM.
 NBasis=    17 RedAO= T  NBF=     9     0     3     5
[...]
 <S**2> of initial guess= 0.0000
 Harris functional with IExCor=  402 diagonalized for initial guess.
 ExpMin= 1.17D-01 ExpMax= 2.19D+04 ExpMxC= 3.30D+03 IAcc=1 IRadAn=         1 AccDes= 1.00D-06
 HarFok:  IExCor= 402 AccDes= 1.00D-06 IRadAn=         1 IDoV=1
 ScaDFX=  1.000000  1.000000  1.000000  1.000000
 Requested convergence on RMS density matrix=1.00D-08 within 128 cycles.
 Requested convergence on MAX density matrix=1.00D-06.
 Requested convergence on             energy=1.00D-06.
 No special actions if energy rises.
 Keep R1 and R2 integrals in memory in canonical form, NReq=      468603.
 Integral accuracy reduced to 1.0D-05 until final iterations.
 EnCoef did   100 forward-backward iterations
 Initial convergence to 1.0D-05 achieved.  Increase integral accuracy.
 SCF Done:  E(UB+HF-LYP) =  -398.572772204     A.U. after   11 cycles
             Convg  =    0.9360D-08             -V/T =  1.9925
             S**2   =   0.0000
 Annihilation of the first spin contaminant:
 S**2 before annihilation     0.0000,   after     0.0000
 Variable Step   Value    
 -------- ---- -----------
     1      48    1.360603
 ------------------------------------------------------------------------
                         Z-MATRIX (ANGSTROMS AND DEGREES)
 CD Cent Atom  N1     Length/X     N2    Alpha/Y     N3     Beta/Z      J
 ------------------------------------------------------------------------
   1   1  S 
   2   2  H     1   0.720000(  1)
   3   3  H     1   0.720000(  2)   2   92.110(  3)
 ------------------------------------------------------------------------
                         Z-Matrix orientation:                         
 ---------------------------------------------------------------------
 Center     Atomic     Atomic              Coordinates (Angstroms)
 Number     Number      Type              X           Y           Z
 ---------------------------------------------------------------------
    1         16             0        0.000000    0.000000    0.000000
    2          1             0        0.000000    0.000000    0.720000
    3          1             0        0.719512    0.000000   -0.026509
 ---------------------------------------------------------------------
                    Distance matrix (angstroms):
                    1          2          3
     1  S    0.000000
     2  H    0.720000   0.000000
     3  H    0.720000   1.036809   0.000000
                           Interatomic angles:
       H2-S1-H3= 92.11  
 Stoichiometry    H2S
 Framework group  C2V[C2(S),SGV(H2)]
 Deg. of freedom     2
 Full point group                 C2V     NOp   4
 Largest Abelian subgroup         C2V     NOp   4
 Largest concise Abelian subgroup C2      NOp   2
                         Standard orientation:                         
 ---------------------------------------------------------------------
 Center     Atomic     Atomic              Coordinates (Angstroms)
 Number     Number      Type              X           Y           Z
 ---------------------------------------------------------------------
    1         16             0        0.000000    0.000000    0.055517
    2          1             0        0.000000    0.518405   -0.444139
    3          1             0        0.000000   -0.518405   -0.444139
 ---------------------------------------------------------------------
 Rotational constants (GHZ):   1067.6036123    932.9631283    497.8763196
 Standard basis: 6-31G (6D, 7F)
 There are     9 symmetry adapted basis functions of A1  symmetry.
 There are     0 symmetry adapted basis functions of A2  symmetry.
 There are     3 symmetry adapted basis functions of B1  symmetry.
 There are     5 symmetry adapted basis functions of B2  symmetry.
 Integral buffers will be    262144 words long.
 Raffenetti 2 integral format.
 Two-electron integral symmetry is turned on.
    17 basis functions,    54 primitive gaussians,    17 cartesian basis functions
     9 alpha electrons        9 beta electrons
       nuclear repulsion energy        24.0293772586 Hartrees.



 Warning!  S  atom    1 may be hypervalent but has no d functions.



 NAtoms=    3 NActive=    3 NUniq=    2 SFac= 2.76D+00 NAtFMM=   60 Big=F
 One-electron integrals computed using PRISM.
 NBasis=    17 RedAO= T  NBF=     9     0     3     5
 NBsUse=    17 1.00D-06 NBFU=     9     0     3     5
 SCF N**3 symmetry information disabled.
 Initial guess read from the read-write file:
 Initial guess orbital symmetries:
 Alpha Orbitals:
       Occupied  (A1) (A1) (B2) (A1) (B1) (A1) (B2) (A1) (B1)
       Virtual   (B2) (A1) (A1) (B2) (B1) (A1) (B2) (A1)
 Beta  Orbitals:
       Occupied  (A1) (A1) (B2) (A1) (B1) (A1) (B2) (A1) (B1)
       Virtual   (B2) (A1) (A1) (B2) (B1) (A1) (B2) (A1)
 <S**2> of initial guess= 0.0000
 Harris functional with IExCor=  402 diagonalized for initial guess.
 ExpMin= 1.17D-01 ExpMax= 2.19D+04 ExpMxC= 3.30D+03 IAcc=1 IRadAn=         1 AccDes= 1.00D-06
 HarFok:  IExCor= 402 AccDes= 1.00D-06 IRadAn=         1 IDoV=1
 ScaDFX=  1.000000  1.000000  1.000000  1.000000
 Requested convergence on RMS density matrix=1.00D-08 within 128 cycles.
 Requested convergence on MAX density matrix=1.00D-06.
 Requested convergence on             energy=1.00D-06.
 No special actions if energy rises.
 Keep R1 and R2 integrals in memory in canonical form, NReq=      468603.
 Integral accuracy reduced to 1.0D-05 until final iterations.
 EnCoef did   100 forward-backward iterations
 Initial convergence to 1.0D-05 achieved.  Increase integral accuracy.
 SCF Done:  E(UB+HF-LYP) =  -397.878789214     A.U. after   12 cycles
             Convg  =    0.7269D-09             -V/T =  1.9874
             S**2   =   0.0000
 Annihilation of the first spin contaminant:
 S**2 before annihilation     0.0000,   after     0.0000
 Variable Step   Value    
 -------- ---- -----------
     1      49    1.152733
 ------------------------------------------------------------------------
                         Z-MATRIX (ANGSTROMS AND DEGREES)
 CD Cent Atom  N1     Length/X     N2    Alpha/Y     N3     Beta/Z      J
 ------------------------------------------------------------------------
   1   1  S 
   2   2  H     1   0.610000(  1)
   3   3  H     1   0.610000(  2)   2   92.110(  3)
 ------------------------------------------------------------------------
                         Z-Matrix orientation:                         
 ---------------------------------------------------------------------
 Center     Atomic     Atomic              Coordinates (Angstroms)
 Number     Number      Type              X           Y           Z
 ---------------------------------------------------------------------
    1         16             0        0.000000    0.000000    0.000000
    2          1             0        0.000000    0.000000    0.610000
    3          1             0        0.609586    0.000000   -0.022459
 ---------------------------------------------------------------------
                    Distance matrix (angstroms):
                    1          2          3
     1  S    0.000000
     2  H    0.610000   0.000000
     3  H    0.610000   0.878408   0.000000
                           Interatomic angles:
       H2-S1-H3= 92.11  
 Stoichiometry    H2S
 Framework group  C2V[C2(S),SGV(H2)]
 Deg. of freedom     2
 Full point group                 C2V     NOp   4
 Largest Abelian subgroup         C2V     NOp   4
 Largest concise Abelian subgroup C2      NOp   2
                         Standard orientation:                         
 ---------------------------------------------------------------------
 Center     Atomic     Atomic              Coordinates (Angstroms)
 Number     Number      Type              X           Y           Z
 ---------------------------------------------------------------------
    1         16             0        0.000000    0.000000    0.047036
    2          1             0        0.000000    0.439204   -0.376285
    3          1             0        0.000000   -0.439204   -0.376285
 ---------------------------------------------------------------------
 Rotational constants (GHZ):   1487.3574647   1299.7798595    693.6282829
 Standard basis: 6-31G (6D, 7F)
 There are     9 symmetry adapted basis functions of A1  symmetry.
 There are     0 symmetry adapted basis functions of A2  symmetry.
 There are     3 symmetry adapted basis functions of B1  symmetry.
 There are     5 symmetry adapted basis functions of B2  symmetry.
 Integral buffers will be    262144 words long.
 Raffenetti 2 integral format.
 Two-electron integral symmetry is turned on.
    17 basis functions,    54 primitive gaussians,    17 cartesian basis functions
     9 alpha electrons        9 beta electrons
       nuclear repulsion energy        28.3625436494 Hartrees.



 Warning!  S  atom    1 may be hypervalent but has no d functions.



 NAtoms=    3 NActive=    3 NUniq=    2 SFac= 2.76D+00 NAtFMM=   60 Big=F
 One-electron integrals computed using PRISM.
 NBasis=    17 RedAO= T  NBF=     9     0     3     5
 NBsUse=    17 1.00D-06 NBFU=     9     0     3     5
 SCF N**3 symmetry information disabled.
 Initial guess read from the read-write file:
 Initial guess orbital symmetries:
 Alpha Orbitals:
       Occupied  (A1) (A1) (B2) (A1) (B1) (A1) (B2) (A1) (B1)
       Virtual   (A1) (B2) (B2) (A1) (B1) (A1) (B2) (A1)
 Beta  Orbitals:
       Occupied  (A1) (A1) (B2) (A1) (B1) (A1) (B2) (A1) (B1)
       Virtual   (A1) (B2) (B2) (A1) (B1) (A1) (B2) (A1)
 <S**2> of initial guess= 0.0000
 Harris functional with IExCor=  402 diagonalized for initial guess.
 ExpMin= 1.17D-01 ExpMax= 2.19D+04 ExpMxC= 3.30D+03 IAcc=1 IRadAn=         1 AccDes= 1.00D-06
 HarFok:  IExCor= 402 AccDes= 1.00D-06 IRadAn=         1 IDoV=1
 ScaDFX=  1.000000  1.000000  1.000000  1.000000
 Requested convergence on RMS density matrix=1.00D-08 within 128 cycles.
 Requested convergence on MAX density matrix=1.00D-06.
 Requested convergence on             energy=1.00D-06.
 No special actions if energy rises.
 Keep R1 and R2 integrals in memory in canonical form, NReq=      468603.
 Integral accuracy reduced to 1.0D-05 until final iterations.
 Initial convergence to 1.0D-05 achieved.  Increase integral accuracy.
 SCF Done:  E(UB+HF-LYP) =  -396.667018619     A.U. after   12 cycles
             Convg  =    0.1208D-08             -V/T =  1.9799
             S**2   =   0.0000
 Annihilation of the first spin contaminant:
 S**2 before annihilation     0.0000,   after     0.0000
 Variable Step   Value    
 -------- ---- -----------
     1      50    0.944863
 ------------------------------------------------------------------------
                         Z-MATRIX (ANGSTROMS AND DEGREES)
 CD Cent Atom  N1     Length/X     N2    Alpha/Y     N3     Beta/Z      J
 ------------------------------------------------------------------------
   1   1  S 
   2   2  H     1   0.500000(  1)
   3   3  H     1   0.500000(  2)   2   92.110(  3)
 ------------------------------------------------------------------------
                         Z-Matrix orientation:                         
 ---------------------------------------------------------------------
 Center     Atomic     Atomic              Coordinates (Angstroms)
 Number     Number      Type              X           Y           Z
 ---------------------------------------------------------------------
    1         16             0        0.000000    0.000000    0.000000
    2          1             0        0.000000    0.000000    0.500000
    3          1             0        0.499661    0.000000   -0.018409
 ---------------------------------------------------------------------
                    Distance matrix (angstroms):
                    1          2          3
     1  S    0.000000
     2  H    0.500000   0.000000
     3  H    0.500000   0.720006   0.000000
                           Interatomic angles:
       H2-S1-H3= 92.11  
 Stoichiometry    H2S
 Framework group  C2V[C2(S),SGV(H2)]
 Deg. of freedom     2
 Full point group                 C2V     NOp   4
 Largest Abelian subgroup         C2V     NOp   4
 Largest concise Abelian subgroup C2      NOp   2
                         Standard orientation:                         
 ---------------------------------------------------------------------
 Center     Atomic     Atomic              Coordinates (Angstroms)
 Number     Number      Type              X           Y           Z
 ---------------------------------------------------------------------
    1         16             0        0.000000    0.000000    0.038554
    2          1             0        0.000000    0.360003   -0.308430
    3          1             0        0.000000   -0.360003   -0.308430
 ---------------------------------------------------------------------
 Rotational constants (GHZ):   2213.7828505   1934.5923429   1032.3963363
 Standard basis: 6-31G (6D, 7F)
 There are     9 symmetry adapted basis functions of A1  symmetry.
 There are     0 symmetry adapted basis functions of A2  symmetry.
 There are     3 symmetry adapted basis functions of B1  symmetry.
 There are     5 symmetry adapted basis functions of B2  symmetry.
 Integral buffers will be    262144 words long.
 Raffenetti 2 integral format.
 Two-electron integral symmetry is turned on.
    17 basis functions,    54 primitive gaussians,    17 cartesian basis functions
     9 alpha electrons        9 beta electrons
       nuclear repulsion energy        34.6023032523 Hartrees.



 Warning!  S  atom    1 may be hypervalent but has no d functions.



 NAtoms=    3 NActive=    3 NUniq=    2 SFac= 2.76D+00 NAtFMM=   60 Big=F
 One-electron integrals computed using PRISM.
 NBasis=    17 RedAO= T  NBF=     9     0     3     5
 NBsUse=    17 1.00D-06 NBFU=     9     0     3     5
 SCF N**3 symmetry information disabled.
 Initial guess read from the read-write file:
 Initial guess orbital symmetries:
 Alpha Orbitals:
       Occupied  (A1) (A1) (B2) (A1) (B1) (A1) (B2) (A1) (B1)
       Virtual   (A1) (B2) (B1) (A1) (B2) (A1) (B2) (A1)
 Beta  Orbitals:
       Occupied  (A1) (A1) (B2) (A1) (B1) (A1) (B2) (A1) (B1)
       Virtual   (A1) (B2) (B1) (A1) (B2) (A1) (B2) (A1)
 <S**2> of initial guess= 0.0000
 Harris functional with IExCor=  402 diagonalized for initial guess.
 ExpMin= 1.17D-01 ExpMax= 2.19D+04 ExpMxC= 3.30D+03 IAcc=1 IRadAn=         1 AccDes= 1.00D-06
 HarFok:  IExCor= 402 AccDes= 1.00D-06 IRadAn=         1 IDoV=1
 ScaDFX=  1.000000  1.000000  1.000000  1.000000
 Requested convergence on RMS density matrix=1.00D-08 within 128 cycles.
 Requested convergence on MAX density matrix=1.00D-06.
 Requested convergence on             energy=1.00D-06.
 No special actions if energy rises.
 Keep R1 and R2 integrals in memory in canonical form, NReq=      468603.
 Integral accuracy reduced to 1.0D-05 until final iterations.
 Initial convergence to 1.0D-05 achieved.  Increase integral accuracy.
 SCF Done:  E(UB+HF-LYP) =  -394.518686557     A.U. after   12 cycles
             Convg  =    0.1929D-08             -V/T =  1.9697
             S**2   =   0.0000
 Annihilation of the first spin contaminant:
 S**2 before annihilation     0.0000,   after     0.0000
 Scan completed.

 Summary of the potential surface scan:
   N       r          SCF    
 ----  ---------  -----------
    1     6.0000   -398.93232
    2     5.8900   -398.93244
    3     5.7800   -398.93257
    4     5.6700   -398.93271
    5     5.5600   -399.10121
    6     5.4500   -399.10123
    7     5.3400   -399.10124
    8     5.2300   -399.10124
    9     5.1200   -399.10124
   10     5.0100   -399.10125
   11     4.9000   -399.10127
   12     4.7900   -399.10130
   13     4.6800   -399.10135
   14     4.5700   -399.10140
   15     4.4600   -399.10146
   16     4.3500   -399.10155
   17     4.2400   -399.10169
   18     4.1300   -399.10186
   19     4.0200   -399.10207
   20     3.9100   -399.10233
   21     3.8000   -399.10269
   22     3.6900   -399.10316
   23     3.5800   -399.10374
   24     3.4700   -399.10451
   25     3.3600   -399.10551
   26     3.2500   -399.10682
   27     3.1400   -399.10852
   28     3.0300   -399.11077
   29     2.9200   -399.11371
   30     2.8100   -399.11756
   31     2.7000   -399.12273
   32     2.5900   -399.12966
   33     2.4800   -399.13895
   34     2.3700   -399.15136
   35     2.2600   -399.16783
   36     2.1500   -399.18939
   37     2.0400   -399.21626
   38     1.9300   -399.24471
   39     1.8200   -399.27353
   40     1.7100   -399.30159
   41     1.6000   -399.32699
   42     1.4900   -399.34658
   43     1.3800   -399.35489
   44     1.2700   -399.34270
   45     1.1600   -399.29434
   46     1.0500   -399.18360
   47     0.9400   -398.96704
   48     0.8300   -398.57277
   49     0.7200   -397.87879
   50     0.6100   -396.66702
   51     0.5000   -394.51869
 ----  ---------  -----------
  
 1|1|UNPC-UNK|Scan|UB3LYP|6-31G|H2S1|PCUSER|19-Jun-2017|1||# UB3LYP/6-3
 1G SCAN GUESS=MIX||Disociacion simetrica UB3LYP 6-31g de H2S||0,1|S|H,
 1,r|H,1,r,2,aHSH||r=6.,s,50,-0.11|aHSH=92.11||Version=x86-Win32-G03Rev
 B.03|HF=-398.9323211,-398.9324437,-398.932569,-398.9327061,-399.101214
 1,-399.101225,-399.1012359,-399.10124,-399.1012399,-399.101245,-399.10
 12654,-399.1013035,-399.10135,-399.1014,-399.1014618,-399.1015535,-399
 .1016886,-399.1018609,-399.1020673,-399.1023329,-399.1026909,-399.1031
 565,-399.1037429,-399.1045052,-399.1055138,-399.1068234,-399.1085245,-
 399.1107689,-399.113705,-399.1175604,-399.1227259,-399.1296614,-399.13
 89463,-399.1513614,-399.1678278,-399.1893897,-399.2162582,-399.2447061
 ,-399.2735301,-399.3015928,-399.326994,-399.3465751,-399.3548942,-399.
 3427019,-399.2943434,-399.1835988,-398.9670444,-398.5727722,-397.87878
 92,-396.6670186,-394.5186866|S2=0.117639,0.120188,0.123725,0.12928,2.0
 00655,2.00063,2.000593,2.000536,2.000451,2.000327,2.000147,1.999887,1.
 999511,1.998978,1.998225,1.997159,1.995668,1.993596,1.990723,1.986748,
 1.981277,1.973805,1.963628,1.94978,1.931025,1.905685,1.871405,1.825018
 ,1.7621,1.676495,1.560053,1.402466,1.192461,0.920658,0.584271,0.190805
 ,0.,0.,0.,0.,0.,0.,0.,0.,0.,0.,0.,0.,0.,0.,0.|S2-1=0.,0.,0.,0.,0.,0.,0
 .,0.,0.,0.,0.,0.,0.,0.,0.,0.,0.,0.,0.,0.,0.,0.,0.,0.,0.,0.,0.,0.,0.,0.
 ,0.,0.,0.,0.,0.,0.,0.,0.,0.,0.,0.,0.,0.,0.,0.,0.,0.,0.,0.,0.,0.|S2A=0.
 000047,0.000075,0.000138,0.000303,4.007588,4.007536,4.007459,4.007338,
 4.007158,4.006899,4.006536,4.006002,4.005227,4.004137,4.002602,4.00043
 1,3.997394,3.993179,3.987322,3.979206,3.968002,3.952617,3.931495,3.902
 452,3.862542,3.80754,3.731161,3.624217,3.472714,3.255309,2.941135,2.49
 0773,1.874469,1.128385,0.430294,0.039791,0.,0.,0.,0.,0.,0.,0.,0.,0.,0.
 ,0.,0.,0.,0.,0.|RMSD=4.945e-009,3.001e-009,1.948e-009,2.107e-009,2.593
 e-009,1.114e-009,1.610e-009,2.156e-009,2.122e-009,1.553e-009,1.829e-00
 9,2.133e-009,2.538e-009,2.838e-009,2.722e-009,2.526e-009,2.428e-009,2.
 998e-009,3.701e-009,4.255e-009,4.161e-009,2.801e-009,2.349e-009,3.046e
 -009,1.970e-009,6.894e-009,5.342e-009,8.843e-010,1.937e-009,1.816e-009
 ,1.204e-009,7.572e-009,8.551e-009,1.533e-009,3.575e-009,2.455e-010,1.2
 04e-009,8.576e-009,5.092e-009,5.061e-009,4.735e-009,2.137e-009,1.492e-
 009,2.602e-009,1.219e-009,2.410e-009,5.146e-009,9.360e-009,7.269e-010,
 1.208e-009,1.929e-009|PG=C02V [C2(S1),SGV(H2)]||@


 YOU CANNOT THROW TO THE GROUND THE LETTERS OF
 THE GREEK ALPHABET AND PICK UP THE ILIAD.
        - RUFUS CHOATE, 1799-1859
 Job cpu time:  0 days  0 hours  0 minutes 39.0 seconds.
 File lengths (MBytes):  RWF=     17 Int=      0 D2E=      0 Chk=     12 Scr=      1
 Normal termination of Gaussian 03 at Mon Jun 19 10:05:06 2017.
