
     Program PWSCF v.4.3.2      starts on 30Sep2016 at 17:40:39 

     This program is part of the open-source Quantum ESPRESSO suite
     for quantum simulation of materials; please cite
         "P. Giannozzi et al., J. Phys.:Condens. Matter 21 395502 (2009);
          URL http://www.quantum-espresso.org", 
     in publications or presentations arising from this work. More details at
     http://www.quantum-espresso.org/wiki/index.php/Citing_Quantum-ESPRESSO

     Parallel version (MPI), running on     1 processors

     Current dimensions of program PWSCF are:
     Max number of different atomic species (ntypx) = 10
     Max number of k-points (npk) =  40000
     Max angular momentum in pseudopotentials (lmaxx) =  3
     Waiting for input...
     Reading input from stdin
Warning: card  &IONS ignored
Warning: card  / ignored

     Subspace diagonalization in iterative solution of the eigenvalue problem:
     a serial algorithm will be used


     G-vector sticks info
     --------------------
     sticks:   dense  smooth     PW     G-vecs:    dense   smooth      PW
     Sum         139     139     55                 1067     1067     259



     bravais-lattice index     =            2
     lattice parameter (alat)  =       7.5000  a.u.
     unit-cell volume          =     105.4688 (a.u.)^3
     number of atoms/cell      =            1
     number of atomic types    =            1
     number of electrons       =         3.00
     number of Kohn-Sham states=            6
     kinetic-energy cutoff     =      18.0000  Ry
     charge density cutoff     =      72.0000  Ry
     convergence threshold     =      1.0E-08
     mixing beta               =       0.7000
     number of iterations used =            8  plain     mixing
     Exchange-correlation      =  SLA  PZ   NOGX NOGC ( 1 1 0 0 0)
     EXX-fraction              =        0.00

     celldm(1)=   7.500000  celldm(2)=   0.000000  celldm(3)=   0.000000
     celldm(4)=   0.000000  celldm(5)=   0.000000  celldm(6)=   0.000000

     crystal axes: (cart. coord. in units of alat)
               a(1) = (  -0.500000   0.000000   0.500000 )  
               a(2) = (   0.000000   0.500000   0.500000 )  
               a(3) = (  -0.500000   0.500000   0.000000 )  

     reciprocal axes: (cart. coord. in units 2 pi/alat)
               b(1) = ( -1.000000 -1.000000  1.000000 )  
               b(2) = (  1.000000  1.000000  1.000000 )  
               b(3) = ( -1.000000  1.000000 -1.000000 )  


     PseudoPot. # 1 for Al read from file:
     pseudopot/Al.pz-vbc.UPF
     MD5 check sum: 614279c88ff8d45c90147292d03ed420
     Pseudo is Norm-conserving, Zval =  3.0
     Generated by new atomic code, or converted to UPF format
     Using radial grid of  171 points,  2 beta functions with: 
                l(1) =   0
                l(2) =   1

     atomic species   valence    mass     pseudopotential
        Al             3.00    26.98100     Al( 1.00)

     48 Sym.Ops. (with inversion)


   Cartesian axes

     site n.     atom                  positions (alat units)
         1           Al  tau(   1) = (   0.0000000   0.0000000   0.0000000  )

     number of k points=    16  Methfessel-Paxton smearing, width (Ry)=  0.0200
                       cart. coord. in units 2pi/alat
        k(    1) = (   0.0000000   0.0000000   0.0000000), wk =   0.0092593
        k(    2) = (  -0.1666667   0.1666667  -0.1666667), wk =   0.0740741
        k(    3) = (  -0.3333333   0.3333333  -0.3333333), wk =   0.0740741
        k(    4) = (   0.5000000  -0.5000000   0.5000000), wk =   0.0370370
        k(    5) = (   0.0000000   0.3333333   0.0000000), wk =   0.0555556
        k(    6) = (  -0.1666667   0.5000000  -0.1666667), wk =   0.2222222
        k(    7) = (   0.6666667  -0.3333333   0.6666667), wk =   0.2222222
        k(    8) = (   0.5000000  -0.1666667   0.5000000), wk =   0.2222222
        k(    9) = (   0.3333333   0.0000000   0.3333333), wk =   0.1111111
        k(   10) = (   0.0000000   0.6666667   0.0000000), wk =   0.0555556
        k(   11) = (   0.8333333  -0.1666667   0.8333333), wk =   0.2222222
        k(   12) = (   0.6666667  -0.0000000   0.6666667), wk =   0.1111111
        k(   13) = (   0.0000000  -1.0000000   0.0000000), wk =   0.0277778
        k(   14) = (   0.6666667  -0.3333333   1.0000000), wk =   0.2222222
        k(   15) = (   0.5000000  -0.1666667   0.8333333), wk =   0.2222222
        k(   16) = (  -0.3333333  -1.0000000   0.0000000), wk =   0.1111111

     Dense  grid:     1067 G-vectors     FFT dimensions: (  15,  15,  15)

     Largest allocated arrays     est. size (Mb)     dimensions
        Kohn-Sham Wavefunctions         0.01 Mb     (    144,    6)
        NL pseudopotentials             0.01 Mb     (    144,    4)
        Each V/rho on FFT grid          0.05 Mb     (   3375)
        Each G-vector array             0.01 Mb     (   1067)
        G-vector shells                 0.00 Mb     (     36)
     Largest temporary arrays     est. size (Mb)     dimensions
        Auxiliary wavefunctions         0.05 Mb     (    144,   24)
        Each subspace H/S matrix        0.01 Mb     (  24,  24)
        Each <psi_i|beta_j> matrix      0.00 Mb     (      4,    6)
        Arrays for rho mixing           0.41 Mb     (   3375,   8)

     Initial potential from superposition of free atoms

     starting charge    2.99794, renormalised to    3.00000
     Starting wfc are    4 atomic +    2 random wfc

     total cpu time spent up to now is        0.1 secs

     per-process dynamical memory:     3.0 Mb

     Self-consistent Calculation

     iteration #  1     ecut=    18.00 Ry     beta=0.70
     Davidson diagonalization with overlap
     ethr =  1.00E-02,  avg # of iterations =  4.4

     Threshold (ethr) on eigenvalues was too large:
     Diagonalizing with lowered threshold

     Davidson diagonalization with overlap
     ethr =  1.82E-04,  avg # of iterations =  1.7

     total cpu time spent up to now is        0.2 secs

     total energy              =      -4.19338608 Ry
     Harris-Foulkes estimate   =      -4.19416425 Ry
     estimated scf accuracy    <       0.00544538 Ry

     iteration #  2     ecut=    18.00 Ry     beta=0.70
     Davidson diagonalization with overlap
     ethr =  1.82E-04,  avg # of iterations =  1.0

     total cpu time spent up to now is        0.2 secs

     total energy              =      -4.19338746 Ry
     Harris-Foulkes estimate   =      -4.19341202 Ry
     estimated scf accuracy    <       0.00041579 Ry

     iteration #  3     ecut=    18.00 Ry     beta=0.70
     Davidson diagonalization with overlap
     ethr =  1.39E-05,  avg # of iterations =  1.3

     total cpu time spent up to now is        0.2 secs

     total energy              =      -4.19339063 Ry
     Harris-Foulkes estimate   =      -4.19339051 Ry
     estimated scf accuracy    <       0.00000033 Ry

     iteration #  4     ecut=    18.00 Ry     beta=0.70
     Davidson diagonalization with overlap
     ethr =  1.10E-08,  avg # of iterations =  1.5

     total cpu time spent up to now is        0.3 secs

     End of self-consistent calculation

          k = 0.0000 0.0000 0.0000 (   137 PWs)   bands (ev):

    -3.1944  21.1676  21.1676  22.5454  22.5454  22.5454

          k =-0.1667 0.1667-0.1667 (   144 PWs)   bands (ev):

    -2.4050  15.0280  19.8310  19.8310  23.1432  24.5597

          k =-0.3333 0.3333-0.3333 (   144 PWs)   bands (ev):

    -0.0745   8.7871  19.2403  19.2403  21.8934  21.8935

          k = 0.5000-0.5000 0.5000 (   138 PWs)   bands (ev):

     3.5901   3.8122  19.8835  19.8835  19.9558  19.9558

          k = 0.0000 0.3333 0.0000 (   141 PWs)   bands (ev):

    -2.1431  17.4626  17.4626  17.5345  20.8352  21.0092

          k =-0.1667 0.5000-0.1667 (   140 PWs)   bands (ev):

    -0.3305  11.3257  16.3993  17.1020  18.1006  23.0577

          k = 0.6667-0.3333 0.6667 (   134 PWs)   bands (ev):

     2.9479   5.9058  14.6234  16.6307  18.4707  24.5953

          k = 0.5000-0.1667 0.5000 (   134 PWs)   bands (ev):

     1.7013   7.5664  13.5097  18.1602  20.1597  23.4939

          k = 0.3333 0.0000 0.3333 (   141 PWs)   bands (ev):

    -1.1034  12.7973  14.3530  20.9570  23.0611  23.2144

          k = 0.0000 0.6667 0.0000 (   129 PWs)   bands (ev):

     0.9443  12.7371  14.4975  14.8974  14.8974  18.5865

          k = 0.8333-0.1667 0.8333 (   133 PWs)   bands (ev):

     3.6740   9.2777   9.8773  14.6869  16.1828  21.4932

          k = 0.6667-0.0000 0.6667 (   136 PWs)   bands (ev):

     4.9044   7.1727   8.7344  15.7678  17.5736  27.3612

          k = 0.0000-1.0000 0.0000 (   126 PWs)   bands (ev):

     5.3237   6.6395  13.4664  14.0483  14.0483  17.6913

          k = 0.6667-0.3333 1.0000 (   138 PWs)   bands (ev):

     1.9510   9.9745  11.5545  13.8167  21.3388  22.9942

          k = 0.5000-0.1667 0.8333 (   140 PWs)   bands (ev):

     5.4621   5.7944  11.2746  12.0749  22.5358  23.1435

          k =-0.3333-1.0000 0.0000 (   136 PWs)   bands (ev):

     6.2453   7.6072   9.0359  10.8184  20.4198  22.3469

     the Fermi energy is     8.6789 ev

!    total energy              =      -4.19339065 Ry
     Harris-Foulkes estimate   =      -4.19339065 Ry
     estimated scf accuracy    <          4.2E-09 Ry

     The total energy is the sum of the following terms:

     one-electron contribution =       2.93370458 Ry
     hartree contribution      =       0.00922120 Ry
     xc contribution           =      -1.63426403 Ry
     ewald contribution        =      -5.50183451 Ry
     smearing contrib. (-TS)   =      -0.00021789 Ry

     convergence has been achieved in   4 iterations

     Writing output data file Alk1570.save

     init_run     :      0.04s CPU      0.04s WALL (       1 calls)
     electrons    :      0.19s CPU      0.22s WALL (       1 calls)

     Called by init_run:
     wfcinit      :      0.02s CPU      0.01s WALL (       1 calls)
     potinit      :      0.00s CPU      0.00s WALL (       1 calls)

     Called by electrons:
     c_bands      :      0.16s CPU      0.17s WALL (       5 calls)
     sum_band     :      0.02s CPU      0.02s WALL (       5 calls)
     v_of_rho     :      0.00s CPU      0.00s WALL (       5 calls)
     mix_rho      :      0.00s CPU      0.00s WALL (       5 calls)

     Called by c_bands:
     init_us_2    :      0.00s CPU      0.01s WALL (     176 calls)
     cegterg      :      0.16s CPU      0.16s WALL (      80 calls)

     Called by *egterg:
     h_psi        :      0.10s CPU      0.12s WALL (     254 calls)
     g_psi        :      0.00s CPU      0.00s WALL (     158 calls)
     cdiaghg      :      0.06s CPU      0.03s WALL (     222 calls)

     Called by h_psi:
     add_vuspsi   :      0.00s CPU      0.00s WALL (     254 calls)

     General routines
     calbec       :      0.00s CPU      0.00s WALL (     254 calls)
     fft          :      0.00s CPU      0.00s WALL (      21 calls)
     fftw         :      0.11s CPU      0.12s WALL (    3038 calls)
     davcio       :      0.00s CPU      0.00s WALL (     256 calls)

     Parallel routines

     PWSCF        :     0.34s CPU         0.48s WALL


   This run was terminated on:  17:40:39  30Sep2016            

=------------------------------------------------------------------------------=
   JOB DONE.
=------------------------------------------------------------------------------=
