
     Program PWSCF v.4.3.2      starts on 30Sep2016 at 17:23:23 

     This program is part of the open-source Quantum ESPRESSO suite
     for quantum simulation of materials; please cite
         "P. Giannozzi et al., J. Phys.:Condens. Matter 21 395502 (2009);
          URL http://www.quantum-espresso.org", 
     in publications or presentations arising from this work. More details at
     http://www.quantum-espresso.org/wiki/index.php/Citing_Quantum-ESPRESSO

     Parallel version (MPI), running on     1 processors

     Current dimensions of program PWSCF are:
     Max number of different atomic species (ntypx) = 10
     Max number of k-points (npk) =  40000
     Max angular momentum in pseudopotentials (lmaxx) =  3
     Waiting for input...
     Reading input from stdin
Warning: card  &IONS ignored
Warning: card  / ignored

     Subspace diagonalization in iterative solution of the eigenvalue problem:
     a serial algorithm will be used


     G-vector sticks info
     --------------------
     sticks:   dense  smooth     PW     G-vecs:    dense   smooth      PW
     Sum         121     121     43                  869      869     181



     bravais-lattice index     =            2
     lattice parameter (alat)  =       6.8000  a.u.
     unit-cell volume          =      78.6080 (a.u.)^3
     number of atoms/cell      =            1
     number of atomic types    =            1
     number of electrons       =         3.00
     number of Kohn-Sham states=            6
     kinetic-energy cutoff     =      18.0000  Ry
     charge density cutoff     =      72.0000  Ry
     convergence threshold     =      1.0E-08
     mixing beta               =       0.7000
     number of iterations used =            8  plain     mixing
     Exchange-correlation      =  SLA  PZ   NOGX NOGC ( 1 1 0 0 0)
     EXX-fraction              =        0.00

     celldm(1)=   6.800000  celldm(2)=   0.000000  celldm(3)=   0.000000
     celldm(4)=   0.000000  celldm(5)=   0.000000  celldm(6)=   0.000000

     crystal axes: (cart. coord. in units of alat)
               a(1) = (  -0.500000   0.000000   0.500000 )  
               a(2) = (   0.000000   0.500000   0.500000 )  
               a(3) = (  -0.500000   0.500000   0.000000 )  

     reciprocal axes: (cart. coord. in units 2 pi/alat)
               b(1) = ( -1.000000 -1.000000  1.000000 )  
               b(2) = (  1.000000  1.000000  1.000000 )  
               b(3) = ( -1.000000  1.000000 -1.000000 )  


     PseudoPot. # 1 for Al read from file:
     pseudopot/Al.pz-vbc.UPF
     MD5 check sum: 614279c88ff8d45c90147292d03ed420
     Pseudo is Norm-conserving, Zval =  3.0
     Generated by new atomic code, or converted to UPF format
     Using radial grid of  171 points,  2 beta functions with: 
                l(1) =   0
                l(2) =   1

     atomic species   valence    mass     pseudopotential
        Al             3.00    26.98100     Al( 1.00)

     48 Sym.Ops. (with inversion)


   Cartesian axes

     site n.     atom                  positions (alat units)
         1           Al  tau(   1) = (   0.0000000   0.0000000   0.0000000  )

     number of k points=    16  Methfessel-Paxton smearing, width (Ry)=  0.0200
                       cart. coord. in units 2pi/alat
        k(    1) = (   0.0000000   0.0000000   0.0000000), wk =   0.0092593
        k(    2) = (  -0.1666667   0.1666667  -0.1666667), wk =   0.0740741
        k(    3) = (  -0.3333333   0.3333333  -0.3333333), wk =   0.0740741
        k(    4) = (   0.5000000  -0.5000000   0.5000000), wk =   0.0370370
        k(    5) = (   0.0000000   0.3333333   0.0000000), wk =   0.0555556
        k(    6) = (  -0.1666667   0.5000000  -0.1666667), wk =   0.2222222
        k(    7) = (   0.6666667  -0.3333333   0.6666667), wk =   0.2222222
        k(    8) = (   0.5000000  -0.1666667   0.5000000), wk =   0.2222222
        k(    9) = (   0.3333333   0.0000000   0.3333333), wk =   0.1111111
        k(   10) = (   0.0000000   0.6666667   0.0000000), wk =   0.0555556
        k(   11) = (   0.8333333  -0.1666667   0.8333333), wk =   0.2222222
        k(   12) = (   0.6666667  -0.0000000   0.6666667), wk =   0.1111111
        k(   13) = (   0.0000000  -1.0000000   0.0000000), wk =   0.0277778
        k(   14) = (   0.6666667  -0.3333333   1.0000000), wk =   0.2222222
        k(   15) = (   0.5000000  -0.1666667   0.8333333), wk =   0.2222222
        k(   16) = (  -0.3333333  -1.0000000   0.0000000), wk =   0.1111111

     Dense  grid:      869 G-vectors     FFT dimensions: (  15,  15,  15)

     Largest allocated arrays     est. size (Mb)     dimensions
        Kohn-Sham Wavefunctions         0.01 Mb     (    113,    6)
        NL pseudopotentials             0.01 Mb     (    113,    4)
        Each V/rho on FFT grid          0.05 Mb     (   3375)
        Each G-vector array             0.01 Mb     (    869)
        G-vector shells                 0.00 Mb     (     31)
     Largest temporary arrays     est. size (Mb)     dimensions
        Auxiliary wavefunctions         0.04 Mb     (    113,   24)
        Each subspace H/S matrix        0.01 Mb     (  24,  24)
        Each <psi_i|beta_j> matrix      0.00 Mb     (      4,    6)
        Arrays for rho mixing           0.41 Mb     (   3375,   8)

     Initial potential from superposition of free atoms

     starting charge    2.99794, renormalised to    3.00000
     Starting wfc are    4 atomic +    2 random wfc

     total cpu time spent up to now is        0.0 secs

     per-process dynamical memory:     3.0 Mb

     Self-consistent Calculation

     iteration #  1     ecut=    18.00 Ry     beta=0.70
     Davidson diagonalization with overlap
     ethr =  1.00E-02,  avg # of iterations =  4.3

     Threshold (ethr) on eigenvalues was too large:
     Diagonalizing with lowered threshold

     Davidson diagonalization with overlap
     ethr =  2.14E-04,  avg # of iterations =  1.4

     total cpu time spent up to now is        0.2 secs

     total energy              =      -4.16219066 Ry
     Harris-Foulkes estimate   =      -4.16261069 Ry
     estimated scf accuracy    <       0.00640882 Ry

     iteration #  2     ecut=    18.00 Ry     beta=0.70
     Davidson diagonalization with overlap
     ethr =  2.14E-04,  avg # of iterations =  1.0

     total cpu time spent up to now is        0.2 secs

     total energy              =      -4.16225824 Ry
     Harris-Foulkes estimate   =      -4.16220605 Ry
     estimated scf accuracy    <       0.00053382 Ry

     iteration #  3     ecut=    18.00 Ry     beta=0.70
     Davidson diagonalization with overlap
     ethr =  1.78E-05,  avg # of iterations =  1.4

     total cpu time spent up to now is        0.2 secs

     total energy              =      -4.16226083 Ry
     Harris-Foulkes estimate   =      -4.16226067 Ry
     estimated scf accuracy    <       0.00000020 Ry

     iteration #  4     ecut=    18.00 Ry     beta=0.70
     Davidson diagonalization with overlap
     ethr =  6.78E-09,  avg # of iterations =  2.0

     total cpu time spent up to now is        0.3 secs

     End of self-consistent calculation

          k = 0.0000 0.0000 0.0000 (   113 PWs)   bands (ev):

    -1.9891  26.4887  26.4887  26.4887  29.9942  29.9942

          k =-0.1667 0.1667-0.1667 (   104 PWs)   bands (ev):

    -1.0289  19.5985  25.4783  25.4783  29.6517  31.9705

          k =-0.3333 0.3333-0.3333 (    98 PWs)   bands (ev):

     1.7758  12.2971  24.8135  24.8135  28.3157  28.3157

          k = 0.5000-0.5000 0.5000 (   108 PWs)   bands (ev):

     5.8152   6.7634  24.9384  24.9384  26.6892  26.6892

          k = 0.0000 0.3333 0.0000 (    97 PWs)   bands (ev):

    -0.7110  21.8892  22.8541  22.8541  26.1685  28.5941

          k =-0.1667 0.5000-0.1667 (   103 PWs)   bands (ev):

     1.4700  15.2049  21.6567  21.6649  24.0441  30.1293

          k = 0.6667-0.3333 0.6667 (   105 PWs)   bands (ev):

     5.3271   8.9363  19.1420  21.9248  24.3728  31.4130

          k = 0.5000-0.1667 0.5000 (    99 PWs)   bands (ev):

     3.8800  10.8416  18.0226  23.6924  26.2668  30.0070

          k = 0.3333 0.0000 0.3333 (    99 PWs)   bands (ev):

     0.5431  16.7694  19.2861  27.0602  29.0047  29.5513

          k = 0.0000 0.6667 0.0000 (   104 PWs)   bands (ev):

     2.9891  16.7688  18.1590  19.9817  19.9817  25.6580

          k = 0.8333-0.1667 0.8333 (   102 PWs)   bands (ev):

     6.1975  12.4757  13.8882  19.7538  21.3677  28.3433

          k = 0.6667-0.0000 0.6667 (   101 PWs)   bands (ev):

     7.5763  10.2043  12.6141  20.9767  23.1853  34.9760

          k = 0.0000-1.0000 0.0000 (   108 PWs)   bands (ev):

     8.0793   9.7720  16.8964  19.0359  19.0359  24.5509

          k = 0.6667-0.3333 1.0000 (   101 PWs)   bands (ev):

     4.1778  13.4426  15.6207  18.9675  27.0746  30.2855

          k = 0.5000-0.1667 0.8333 (   104 PWs)   bands (ev):

     8.0082   9.0025  14.8020  17.3183  29.1217  29.4436

          k =-0.3333-1.0000 0.0000 (   104 PWs)   bands (ev):

     9.1353  10.6918  12.3393  15.8806  26.0041  29.5220

     the Fermi energy is    12.2449 ev

!    total energy              =      -4.16226086 Ry
     Harris-Foulkes estimate   =      -4.16226086 Ry
     estimated scf accuracy    <          6.7E-09 Ry

     The total energy is the sum of the following terms:

     one-electron contribution =       3.67927473 Ry
     hartree contribution      =       0.01909530 Ry
     xc contribution           =      -1.79230060 Ry
     ewald contribution        =      -6.06819981 Ry
     smearing contrib. (-TS)   =      -0.00013047 Ry

     convergence has been achieved in   4 iterations

     Writing output data file Alk1570.save

     init_run     :      0.02s CPU      0.03s WALL (       1 calls)
     electrons    :      0.19s CPU      0.22s WALL (       1 calls)

     Called by init_run:
     wfcinit      :      0.01s CPU      0.01s WALL (       1 calls)
     potinit      :      0.00s CPU      0.00s WALL (       1 calls)

     Called by electrons:
     c_bands      :      0.16s CPU      0.17s WALL (       5 calls)
     sum_band     :      0.02s CPU      0.02s WALL (       5 calls)
     v_of_rho     :      0.00s CPU      0.00s WALL (       5 calls)
     mix_rho      :      0.00s CPU      0.00s WALL (       5 calls)

     Called by c_bands:
     init_us_2    :      0.00s CPU      0.00s WALL (     176 calls)
     cegterg      :      0.16s CPU      0.17s WALL (      80 calls)

     Called by *egterg:
     h_psi        :      0.14s CPU      0.12s WALL (     257 calls)
     g_psi        :      0.00s CPU      0.00s WALL (     161 calls)
     cdiaghg      :      0.02s CPU      0.03s WALL (     225 calls)

     Called by h_psi:
     add_vuspsi   :      0.00s CPU      0.00s WALL (     257 calls)

     General routines
     calbec       :      0.00s CPU      0.00s WALL (     257 calls)
     fft          :      0.00s CPU      0.00s WALL (      21 calls)
     fftw         :      0.14s CPU      0.12s WALL (    3054 calls)
     davcio       :      0.00s CPU      0.00s WALL (     256 calls)

     Parallel routines

     PWSCF        :     0.33s CPU         0.46s WALL


   This run was terminated on:  17:23:24  30Sep2016            

=------------------------------------------------------------------------------=
   JOB DONE.
=------------------------------------------------------------------------------=
