
     Program PWSCF v.4.3.2      starts on 30Sep2016 at 17:33:57 

     This program is part of the open-source Quantum ESPRESSO suite
     for quantum simulation of materials; please cite
         "P. Giannozzi et al., J. Phys.:Condens. Matter 21 395502 (2009);
          URL http://www.quantum-espresso.org", 
     in publications or presentations arising from this work. More details at
     http://www.quantum-espresso.org/wiki/index.php/Citing_Quantum-ESPRESSO

     Parallel version (MPI), running on     1 processors

     Current dimensions of program PWSCF are:
     Max number of different atomic species (ntypx) = 10
     Max number of k-points (npk) =  40000
     Max angular momentum in pseudopotentials (lmaxx) =  3
     Waiting for input...
     Reading input from stdin
Warning: card  &IONS ignored
Warning: card  / ignored

     Subspace diagonalization in iterative solution of the eigenvalue problem:
     a serial algorithm will be used


     G-vector sticks info
     --------------------
     sticks:   dense  smooth     PW     G-vecs:    dense   smooth      PW
     Sum         139     139     55                 1037     1037     259



     bravais-lattice index     =            2
     lattice parameter (alat)  =       7.4000  a.u.
     unit-cell volume          =     101.3060 (a.u.)^3
     number of atoms/cell      =            1
     number of atomic types    =            1
     number of electrons       =         3.00
     number of Kohn-Sham states=            6
     kinetic-energy cutoff     =      18.0000  Ry
     charge density cutoff     =      72.0000  Ry
     convergence threshold     =      1.0E-08
     mixing beta               =       0.7000
     number of iterations used =            8  plain     mixing
     Exchange-correlation      =  SLA  PZ   NOGX NOGC ( 1 1 0 0 0)
     EXX-fraction              =        0.00

     celldm(1)=   7.400000  celldm(2)=   0.000000  celldm(3)=   0.000000
     celldm(4)=   0.000000  celldm(5)=   0.000000  celldm(6)=   0.000000

     crystal axes: (cart. coord. in units of alat)
               a(1) = (  -0.500000   0.000000   0.500000 )  
               a(2) = (   0.000000   0.500000   0.500000 )  
               a(3) = (  -0.500000   0.500000   0.000000 )  

     reciprocal axes: (cart. coord. in units 2 pi/alat)
               b(1) = ( -1.000000 -1.000000  1.000000 )  
               b(2) = (  1.000000  1.000000  1.000000 )  
               b(3) = ( -1.000000  1.000000 -1.000000 )  


     PseudoPot. # 1 for Al read from file:
     pseudopot/Al.pz-vbc.UPF
     MD5 check sum: 614279c88ff8d45c90147292d03ed420
     Pseudo is Norm-conserving, Zval =  3.0
     Generated by new atomic code, or converted to UPF format
     Using radial grid of  171 points,  2 beta functions with: 
                l(1) =   0
                l(2) =   1

     atomic species   valence    mass     pseudopotential
        Al             3.00    26.98100     Al( 1.00)

     48 Sym.Ops. (with inversion)


   Cartesian axes

     site n.     atom                  positions (alat units)
         1           Al  tau(   1) = (   0.0000000   0.0000000   0.0000000  )

     number of k points=    16  Methfessel-Paxton smearing, width (Ry)=  0.0200
                       cart. coord. in units 2pi/alat
        k(    1) = (   0.0000000   0.0000000   0.0000000), wk =   0.0092593
        k(    2) = (  -0.1666667   0.1666667  -0.1666667), wk =   0.0740741
        k(    3) = (  -0.3333333   0.3333333  -0.3333333), wk =   0.0740741
        k(    4) = (   0.5000000  -0.5000000   0.5000000), wk =   0.0370370
        k(    5) = (   0.0000000   0.3333333   0.0000000), wk =   0.0555556
        k(    6) = (  -0.1666667   0.5000000  -0.1666667), wk =   0.2222222
        k(    7) = (   0.6666667  -0.3333333   0.6666667), wk =   0.2222222
        k(    8) = (   0.5000000  -0.1666667   0.5000000), wk =   0.2222222
        k(    9) = (   0.3333333   0.0000000   0.3333333), wk =   0.1111111
        k(   10) = (   0.0000000   0.6666667   0.0000000), wk =   0.0555556
        k(   11) = (   0.8333333  -0.1666667   0.8333333), wk =   0.2222222
        k(   12) = (   0.6666667  -0.0000000   0.6666667), wk =   0.1111111
        k(   13) = (   0.0000000  -1.0000000   0.0000000), wk =   0.0277778
        k(   14) = (   0.6666667  -0.3333333   1.0000000), wk =   0.2222222
        k(   15) = (   0.5000000  -0.1666667   0.8333333), wk =   0.2222222
        k(   16) = (  -0.3333333  -1.0000000   0.0000000), wk =   0.1111111

     Dense  grid:     1037 G-vectors     FFT dimensions: (  15,  15,  15)

     Largest allocated arrays     est. size (Mb)     dimensions
        Kohn-Sham Wavefunctions         0.01 Mb     (    138,    6)
        NL pseudopotentials             0.01 Mb     (    138,    4)
        Each V/rho on FFT grid          0.05 Mb     (   3375)
        Each G-vector array             0.01 Mb     (   1037)
        G-vector shells                 0.00 Mb     (     35)
     Largest temporary arrays     est. size (Mb)     dimensions
        Auxiliary wavefunctions         0.05 Mb     (    138,   24)
        Each subspace H/S matrix        0.01 Mb     (  24,  24)
        Each <psi_i|beta_j> matrix      0.00 Mb     (      4,    6)
        Arrays for rho mixing           0.41 Mb     (   3375,   8)

     Initial potential from superposition of free atoms

     starting charge    2.99794, renormalised to    3.00000
     Starting wfc are    4 atomic +    2 random wfc

     total cpu time spent up to now is        0.1 secs

     per-process dynamical memory:     3.0 Mb

     Self-consistent Calculation

     iteration #  1     ecut=    18.00 Ry     beta=0.70
     Davidson diagonalization with overlap
     ethr =  1.00E-02,  avg # of iterations =  4.6

     Threshold (ethr) on eigenvalues was too large:
     Diagonalizing with lowered threshold

     Davidson diagonalization with overlap
     ethr =  1.84E-04,  avg # of iterations =  1.6

     total cpu time spent up to now is        0.2 secs

     total energy              =      -4.19277996 Ry
     Harris-Foulkes estimate   =      -4.19350968 Ry
     estimated scf accuracy    <       0.00550695 Ry

     iteration #  2     ecut=    18.00 Ry     beta=0.70
     Davidson diagonalization with overlap
     ethr =  1.84E-04,  avg # of iterations =  1.0

     total cpu time spent up to now is        0.2 secs

     total energy              =      -4.19278608 Ry
     Harris-Foulkes estimate   =      -4.19280349 Ry
     estimated scf accuracy    <       0.00042782 Ry

     iteration #  3     ecut=    18.00 Ry     beta=0.70
     Davidson diagonalization with overlap
     ethr =  1.43E-05,  avg # of iterations =  1.3

     total cpu time spent up to now is        0.2 secs

     total energy              =      -4.19278904 Ry
     Harris-Foulkes estimate   =      -4.19278892 Ry
     estimated scf accuracy    <       0.00000031 Ry

     iteration #  4     ecut=    18.00 Ry     beta=0.70
     Davidson diagonalization with overlap
     ethr =  1.02E-08,  avg # of iterations =  1.8

     total cpu time spent up to now is        0.3 secs

     End of self-consistent calculation

          k = 0.0000 0.0000 0.0000 (   137 PWs)   bands (ev):

    -3.0527  21.8349  21.8350  23.4848  23.4848  23.4848

          k =-0.1667 0.1667-0.1667 (   132 PWs)   bands (ev):

    -2.2416  15.6102  20.5574  20.5574  23.9723  25.4883

          k =-0.3333 0.3333-0.3333 (   138 PWs)   bands (ev):

     0.1496   9.2271  19.9641  19.9641  22.6775  22.6776

          k = 0.5000-0.5000 0.5000 (   138 PWs)   bands (ev):

     3.8589   4.1818  20.5819  20.5819  20.7327  20.7327

          k = 0.0000 0.3333 0.0000 (   129 PWs)   bands (ev):

    -1.9726  18.0846  18.1458  18.1458  21.6545  21.8068

          k =-0.1667 0.5000-0.1667 (   134 PWs)   bands (ev):

    -0.1125  11.8171  17.0639  17.7038  18.8277  23.9231

          k = 0.6667-0.3333 0.6667 (   129 PWs)   bands (ev):

     3.2437   6.2813  15.2091  17.3003  19.1873  25.4429

          k = 0.5000-0.1667 0.5000 (   131 PWs)   bands (ev):

     1.9692   7.9752  14.0844  18.8653  20.9102  24.3032

          k = 0.3333 0.0000 0.3333 (   137 PWs)   bands (ev):

    -0.9055  13.2975  14.9800  21.7530  23.8721  23.9417

          k = 0.0000 0.6667 0.0000 (   129 PWs)   bands (ev):

     1.1935  13.2602  14.9592  15.5314  15.5314  19.4409

          k = 0.8333-0.1667 0.8333 (   129 PWs)   bands (ev):

     3.9869   9.6791  10.3939  15.3192  16.8184  22.3320

          k = 0.6667-0.0000 0.6667 (   126 PWs)   bands (ev):

     5.2420   7.5471   9.2284  16.4210  18.2614  28.3133

          k = 0.0000-1.0000 0.0000 (   116 PWs)   bands (ev):

     5.6603   7.0488  13.8993  14.6702  14.6702  18.5215

          k = 0.6667-0.3333 1.0000 (   130 PWs)   bands (ev):

     2.2247  10.4088  12.0867  14.4437  22.0590  23.8973

          k = 0.5000-0.1667 0.8333 (   122 PWs)   bands (ev):

     5.7782   6.2005  11.7218  12.7243  23.3653  23.9336

          k =-0.3333-1.0000 0.0000 (   124 PWs)   bands (ev):

     6.6012   8.0162   9.4499  11.4301  21.1212  23.2337

     the Fermi energy is     9.1547 ev

!    total energy              =      -4.19278906 Ry
     Harris-Foulkes estimate   =      -4.19278906 Ry
     estimated scf accuracy    <          4.9E-09 Ry

     The total energy is the sum of the following terms:

     one-electron contribution =       3.02820875 Ry
     hartree contribution      =       0.01007281 Ry
     xc contribution           =      -1.65470051 Ry
     ewald contribution        =      -5.57618363 Ry
     smearing contrib. (-TS)   =      -0.00018648 Ry

     convergence has been achieved in   4 iterations

     Writing output data file Alk1570.save

     init_run     :      0.03s CPU      0.03s WALL (       1 calls)
     electrons    :      0.19s CPU      0.22s WALL (       1 calls)

     Called by init_run:
     wfcinit      :      0.01s CPU      0.01s WALL (       1 calls)
     potinit      :      0.00s CPU      0.00s WALL (       1 calls)

     Called by electrons:
     c_bands      :      0.16s CPU      0.17s WALL (       5 calls)
     sum_band     :      0.02s CPU      0.02s WALL (       5 calls)
     v_of_rho     :      0.00s CPU      0.00s WALL (       5 calls)
     mix_rho      :      0.00s CPU      0.00s WALL (       5 calls)

     Called by c_bands:
     init_us_2    :      0.00s CPU      0.01s WALL (     176 calls)
     cegterg      :      0.16s CPU      0.16s WALL (      80 calls)

     Called by *egterg:
     h_psi        :      0.10s CPU      0.12s WALL (     259 calls)
     g_psi        :      0.00s CPU      0.00s WALL (     163 calls)
     cdiaghg      :      0.03s CPU      0.03s WALL (     227 calls)

     Called by h_psi:
     add_vuspsi   :      0.00s CPU      0.00s WALL (     259 calls)

     General routines
     calbec       :      0.00s CPU      0.00s WALL (     259 calls)
     fft          :      0.00s CPU      0.00s WALL (      21 calls)
     fftw         :      0.11s CPU      0.11s WALL (    3056 calls)
     davcio       :      0.00s CPU      0.00s WALL (     256 calls)

     Parallel routines

     PWSCF        :     0.34s CPU         0.48s WALL


   This run was terminated on:  17:33:58  30Sep2016            

=------------------------------------------------------------------------------=
   JOB DONE.
=------------------------------------------------------------------------------=
