
     Program PWSCF v.4.3.2      starts on 30Sep2016 at 17:34:24 

     This program is part of the open-source Quantum ESPRESSO suite
     for quantum simulation of materials; please cite
         "P. Giannozzi et al., J. Phys.:Condens. Matter 21 395502 (2009);
          URL http://www.quantum-espresso.org", 
     in publications or presentations arising from this work. More details at
     http://www.quantum-espresso.org/wiki/index.php/Citing_Quantum-ESPRESSO

     Parallel version (MPI), running on     1 processors

     Current dimensions of program PWSCF are:
     Max number of different atomic species (ntypx) = 10
     Max number of k-points (npk) =  40000
     Max angular momentum in pseudopotentials (lmaxx) =  3
     Waiting for input...
     Reading input from stdin
Warning: card  &IONS ignored
Warning: card  / ignored

     Subspace diagonalization in iterative solution of the eigenvalue problem:
     a serial algorithm will be used


     G-vector sticks info
     --------------------
     sticks:   dense  smooth     PW     G-vecs:    dense   smooth      PW
     Sum         163     163     61                 1411     1411     331



     bravais-lattice index     =            2
     lattice parameter (alat)  =       8.2000  a.u.
     unit-cell volume          =     137.8420 (a.u.)^3
     number of atoms/cell      =            1
     number of atomic types    =            1
     number of electrons       =         3.00
     number of Kohn-Sham states=            6
     kinetic-energy cutoff     =      18.0000  Ry
     charge density cutoff     =      72.0000  Ry
     convergence threshold     =      1.0E-08
     mixing beta               =       0.7000
     number of iterations used =            8  plain     mixing
     Exchange-correlation      =  SLA  PZ   NOGX NOGC ( 1 1 0 0 0)
     EXX-fraction              =        0.00

     celldm(1)=   8.200000  celldm(2)=   0.000000  celldm(3)=   0.000000
     celldm(4)=   0.000000  celldm(5)=   0.000000  celldm(6)=   0.000000

     crystal axes: (cart. coord. in units of alat)
               a(1) = (  -0.500000   0.000000   0.500000 )  
               a(2) = (   0.000000   0.500000   0.500000 )  
               a(3) = (  -0.500000   0.500000   0.000000 )  

     reciprocal axes: (cart. coord. in units 2 pi/alat)
               b(1) = ( -1.000000 -1.000000  1.000000 )  
               b(2) = (  1.000000  1.000000  1.000000 )  
               b(3) = ( -1.000000  1.000000 -1.000000 )  


     PseudoPot. # 1 for Al read from file:
     pseudopot/Al.pz-vbc.UPF
     MD5 check sum: 614279c88ff8d45c90147292d03ed420
     Pseudo is Norm-conserving, Zval =  3.0
     Generated by new atomic code, or converted to UPF format
     Using radial grid of  171 points,  2 beta functions with: 
                l(1) =   0
                l(2) =   1

     atomic species   valence    mass     pseudopotential
        Al             3.00    26.98100     Al( 1.00)

     48 Sym.Ops. (with inversion)


   Cartesian axes

     site n.     atom                  positions (alat units)
         1           Al  tau(   1) = (   0.0000000   0.0000000   0.0000000  )

     number of k points=    16  Methfessel-Paxton smearing, width (Ry)=  0.0200
                       cart. coord. in units 2pi/alat
        k(    1) = (   0.0000000   0.0000000   0.0000000), wk =   0.0092593
        k(    2) = (  -0.1666667   0.1666667  -0.1666667), wk =   0.0740741
        k(    3) = (  -0.3333333   0.3333333  -0.3333333), wk =   0.0740741
        k(    4) = (   0.5000000  -0.5000000   0.5000000), wk =   0.0370370
        k(    5) = (   0.0000000   0.3333333   0.0000000), wk =   0.0555556
        k(    6) = (  -0.1666667   0.5000000  -0.1666667), wk =   0.2222222
        k(    7) = (   0.6666667  -0.3333333   0.6666667), wk =   0.2222222
        k(    8) = (   0.5000000  -0.1666667   0.5000000), wk =   0.2222222
        k(    9) = (   0.3333333   0.0000000   0.3333333), wk =   0.1111111
        k(   10) = (   0.0000000   0.6666667   0.0000000), wk =   0.0555556
        k(   11) = (   0.8333333  -0.1666667   0.8333333), wk =   0.2222222
        k(   12) = (   0.6666667  -0.0000000   0.6666667), wk =   0.1111111
        k(   13) = (   0.0000000  -1.0000000   0.0000000), wk =   0.0277778
        k(   14) = (   0.6666667  -0.3333333   1.0000000), wk =   0.2222222
        k(   15) = (   0.5000000  -0.1666667   0.8333333), wk =   0.2222222
        k(   16) = (  -0.3333333  -1.0000000   0.0000000), wk =   0.1111111

     Dense  grid:     1411 G-vectors     FFT dimensions: (  15,  15,  15)

     Largest allocated arrays     est. size (Mb)     dimensions
        Kohn-Sham Wavefunctions         0.02 Mb     (    190,    6)
        NL pseudopotentials             0.01 Mb     (    190,    4)
        Each V/rho on FFT grid          0.05 Mb     (   3375)
        Each G-vector array             0.01 Mb     (   1411)
        G-vector shells                 0.00 Mb     (     42)
     Largest temporary arrays     est. size (Mb)     dimensions
        Auxiliary wavefunctions         0.07 Mb     (    190,   24)
        Each subspace H/S matrix        0.01 Mb     (  24,  24)
        Each <psi_i|beta_j> matrix      0.00 Mb     (      4,    6)
        Arrays for rho mixing           0.41 Mb     (   3375,   8)

     Initial potential from superposition of free atoms

     starting charge    2.99794, renormalised to    3.00000
     Starting wfc are    4 atomic +    2 random wfc

     total cpu time spent up to now is        0.1 secs

     per-process dynamical memory:     3.0 Mb

     Self-consistent Calculation

     iteration #  1     ecut=    18.00 Ry     beta=0.70
     Davidson diagonalization with overlap
     ethr =  1.00E-02,  avg # of iterations =  4.6

     Threshold (ethr) on eigenvalues was too large:
     Diagonalizing with lowered threshold

     Davidson diagonalization with overlap
     ethr =  1.79E-04,  avg # of iterations =  1.4

     total cpu time spent up to now is        0.2 secs

     total energy              =      -4.17638769 Ry
     Harris-Foulkes estimate   =      -4.17745613 Ry
     estimated scf accuracy    <       0.00526153 Ry

     iteration #  2     ecut=    18.00 Ry     beta=0.70
     Davidson diagonalization with overlap
     ethr =  1.75E-04,  avg # of iterations =  1.0

     total cpu time spent up to now is        0.2 secs

     total energy              =      -4.17638257 Ry
     Harris-Foulkes estimate   =      -4.17643886 Ry
     estimated scf accuracy    <       0.00035267 Ry

     iteration #  3     ecut=    18.00 Ry     beta=0.70
     Davidson diagonalization with overlap
     ethr =  1.18E-05,  avg # of iterations =  1.8

     total cpu time spent up to now is        0.2 secs

     total energy              =      -4.17638790 Ry
     Harris-Foulkes estimate   =      -4.17638784 Ry
     estimated scf accuracy    <       0.00000041 Ry

     iteration #  4     ecut=    18.00 Ry     beta=0.70
     Davidson diagonalization with overlap
     ethr =  1.37E-08,  avg # of iterations =  1.8

     total cpu time spent up to now is        0.3 secs

     End of self-consistent calculation

          k = 0.0000 0.0000 0.0000 (   169 PWs)   bands (ev):

    -3.9893  16.9159  16.9159  16.9159  17.1726  17.1726

          k =-0.1667 0.1667-0.1667 (   172 PWs)   bands (ev):

    -3.3311  11.4831  15.3632  15.3632  18.1559  19.1815

          k =-0.3333 0.3333-0.3333 (   171 PWs)   bands (ev):

    -1.3787   6.1586  14.7426  14.7426  17.3921  17.3921

          k = 0.5000-0.5000 0.5000 (   168 PWs)   bands (ev):

     1.6002   2.0364  14.8394  14.8394  16.2033  16.2033

          k = 0.0000 0.3333 0.0000 (   173 PWs)   bands (ev):

    -3.1121  13.3542  13.3542  14.2386  15.1454  17.0898

          k =-0.1667 0.5000-0.1667 (   178 PWs)   bands (ev):

    -1.5925   8.3477  12.4217  13.0011  14.2188  18.0230

          k = 0.6667-0.3333 0.6667 (   178 PWs)   bands (ev):

     1.1710   3.7074  10.9841  12.6013  14.3780  19.5870

          k = 0.5000-0.1667 0.5000 (   179 PWs)   bands (ev):

     0.1186   5.1320  10.0208  13.8661  15.7887  18.7188

          k = 0.3333 0.0000 0.3333 (   172 PWs)   bands (ev):

    -2.2416   9.7840  10.5460  16.0090  18.2519  18.8691

          k = 0.0000 0.6667 0.0000 (   174 PWs)   bands (ev):

    -0.5165   9.4271  11.1196  11.1196  11.7205  13.7818

          k = 0.8333-0.1667 0.8333 (   178 PWs)   bands (ev):

     1.8090   6.6647   6.9162  10.9327  12.4991  16.6218

          k = 0.6667-0.0000 0.6667 (   186 PWs)   bands (ev):

     2.8484   4.9840   5.7815  11.8591  13.5981  21.7058

          k = 0.0000-1.0000 0.0000 (   190 PWs)   bands (ev):

     3.3857   4.0593  10.3723  10.3723  10.8625  12.9799

          k = 0.6667-0.3333 1.0000 (   178 PWs)   bands (ev):

     0.3340   7.3879   8.2042  10.2455  17.0375  17.7090

          k = 0.5000-0.1667 0.8333 (   180 PWs)   bands (ev):

     3.3263   3.6289   8.3091   8.5996  17.5985  18.4589

          k =-0.3333-1.0000 0.0000 (   182 PWs)   bands (ev):

     4.1854   4.9005   6.5881   7.4361  16.2539  17.1493

     the Fermi energy is     5.7591 ev

!    total energy              =      -4.17638795 Ry
     Harris-Foulkes estimate   =      -4.17638795 Ry
     estimated scf accuracy    <          1.1E-09 Ry

     The total energy is the sum of the following terms:

     one-electron contribution =       2.35535114 Ry
     hartree contribution      =       0.00984536 Ry
     xc contribution           =      -1.50922402 Ry
     ewald contribution        =      -5.03216571 Ry
     smearing contrib. (-TS)   =      -0.00019473 Ry

     convergence has been achieved in   4 iterations

     Writing output data file Alk1570.save

     init_run     :      0.03s CPU      0.03s WALL (       1 calls)
     electrons    :      0.19s CPU      0.22s WALL (       1 calls)

     Called by init_run:
     wfcinit      :      0.01s CPU      0.01s WALL (       1 calls)
     potinit      :      0.00s CPU      0.00s WALL (       1 calls)

     Called by electrons:
     c_bands      :      0.16s CPU      0.17s WALL (       5 calls)
     sum_band     :      0.03s CPU      0.03s WALL (       5 calls)
     v_of_rho     :      0.00s CPU      0.00s WALL (       5 calls)
     mix_rho      :      0.00s CPU      0.00s WALL (       5 calls)

     Called by c_bands:
     init_us_2    :      0.01s CPU      0.01s WALL (     176 calls)
     cegterg      :      0.15s CPU      0.16s WALL (      80 calls)

     Called by *egterg:
     h_psi        :      0.14s CPU      0.11s WALL (     265 calls)
     g_psi        :      0.00s CPU      0.00s WALL (     169 calls)
     cdiaghg      :      0.00s CPU      0.03s WALL (     233 calls)

     Called by h_psi:
     add_vuspsi   :      0.00s CPU      0.00s WALL (     265 calls)

     General routines
     calbec       :      0.00s CPU      0.00s WALL (     265 calls)
     fft          :      0.00s CPU      0.00s WALL (      21 calls)
     fftw         :      0.14s CPU      0.11s WALL (    3028 calls)
     davcio       :      0.00s CPU      0.00s WALL (     256 calls)

     Parallel routines

     PWSCF        :     0.34s CPU         0.49s WALL


   This run was terminated on:  17:34:25  30Sep2016            

=------------------------------------------------------------------------------=
   JOB DONE.
=------------------------------------------------------------------------------=
