
     Program PWSCF v.4.3.2      starts on 30Sep2016 at 17:34: 2 

     This program is part of the open-source Quantum ESPRESSO suite
     for quantum simulation of materials; please cite
         "P. Giannozzi et al., J. Phys.:Condens. Matter 21 395502 (2009);
          URL http://www.quantum-espresso.org", 
     in publications or presentations arising from this work. More details at
     http://www.quantum-espresso.org/wiki/index.php/Citing_Quantum-ESPRESSO

     Parallel version (MPI), running on     1 processors

     Current dimensions of program PWSCF are:
     Max number of different atomic species (ntypx) = 10
     Max number of k-points (npk) =  40000
     Max angular momentum in pseudopotentials (lmaxx) =  3
     Waiting for input...
     Reading input from stdin
Warning: card  &IONS ignored
Warning: card  / ignored

     Subspace diagonalization in iterative solution of the eigenvalue problem:
     a serial algorithm will be used


     G-vector sticks info
     --------------------
     sticks:   dense  smooth     PW     G-vecs:    dense   smooth      PW
     Sum         151     151     55                 1139     1139     283



     bravais-lattice index     =            2
     lattice parameter (alat)  =       7.6000  a.u.
     unit-cell volume          =     109.7440 (a.u.)^3
     number of atoms/cell      =            1
     number of atomic types    =            1
     number of electrons       =         3.00
     number of Kohn-Sham states=            6
     kinetic-energy cutoff     =      18.0000  Ry
     charge density cutoff     =      72.0000  Ry
     convergence threshold     =      1.0E-08
     mixing beta               =       0.7000
     number of iterations used =            8  plain     mixing
     Exchange-correlation      =  SLA  PZ   NOGX NOGC ( 1 1 0 0 0)
     EXX-fraction              =        0.00

     celldm(1)=   7.600000  celldm(2)=   0.000000  celldm(3)=   0.000000
     celldm(4)=   0.000000  celldm(5)=   0.000000  celldm(6)=   0.000000

     crystal axes: (cart. coord. in units of alat)
               a(1) = (  -0.500000   0.000000   0.500000 )  
               a(2) = (   0.000000   0.500000   0.500000 )  
               a(3) = (  -0.500000   0.500000   0.000000 )  

     reciprocal axes: (cart. coord. in units 2 pi/alat)
               b(1) = ( -1.000000 -1.000000  1.000000 )  
               b(2) = (  1.000000  1.000000  1.000000 )  
               b(3) = ( -1.000000  1.000000 -1.000000 )  


     PseudoPot. # 1 for Al read from file:
     pseudopot/Al.pz-vbc.UPF
     MD5 check sum: 614279c88ff8d45c90147292d03ed420
     Pseudo is Norm-conserving, Zval =  3.0
     Generated by new atomic code, or converted to UPF format
     Using radial grid of  171 points,  2 beta functions with: 
                l(1) =   0
                l(2) =   1

     atomic species   valence    mass     pseudopotential
        Al             3.00    26.98100     Al( 1.00)

     48 Sym.Ops. (with inversion)


   Cartesian axes

     site n.     atom                  positions (alat units)
         1           Al  tau(   1) = (   0.0000000   0.0000000   0.0000000  )

     number of k points=    16  Methfessel-Paxton smearing, width (Ry)=  0.0200
                       cart. coord. in units 2pi/alat
        k(    1) = (   0.0000000   0.0000000   0.0000000), wk =   0.0092593
        k(    2) = (  -0.1666667   0.1666667  -0.1666667), wk =   0.0740741
        k(    3) = (  -0.3333333   0.3333333  -0.3333333), wk =   0.0740741
        k(    4) = (   0.5000000  -0.5000000   0.5000000), wk =   0.0370370
        k(    5) = (   0.0000000   0.3333333   0.0000000), wk =   0.0555556
        k(    6) = (  -0.1666667   0.5000000  -0.1666667), wk =   0.2222222
        k(    7) = (   0.6666667  -0.3333333   0.6666667), wk =   0.2222222
        k(    8) = (   0.5000000  -0.1666667   0.5000000), wk =   0.2222222
        k(    9) = (   0.3333333   0.0000000   0.3333333), wk =   0.1111111
        k(   10) = (   0.0000000   0.6666667   0.0000000), wk =   0.0555556
        k(   11) = (   0.8333333  -0.1666667   0.8333333), wk =   0.2222222
        k(   12) = (   0.6666667  -0.0000000   0.6666667), wk =   0.1111111
        k(   13) = (   0.0000000  -1.0000000   0.0000000), wk =   0.0277778
        k(   14) = (   0.6666667  -0.3333333   1.0000000), wk =   0.2222222
        k(   15) = (   0.5000000  -0.1666667   0.8333333), wk =   0.2222222
        k(   16) = (  -0.3333333  -1.0000000   0.0000000), wk =   0.1111111

     Dense  grid:     1139 G-vectors     FFT dimensions: (  15,  15,  15)

     Largest allocated arrays     est. size (Mb)     dimensions
        Kohn-Sham Wavefunctions         0.01 Mb     (    150,    6)
        NL pseudopotentials             0.01 Mb     (    150,    4)
        Each V/rho on FFT grid          0.05 Mb     (   3375)
        Each G-vector array             0.01 Mb     (   1139)
        G-vector shells                 0.00 Mb     (     37)
     Largest temporary arrays     est. size (Mb)     dimensions
        Auxiliary wavefunctions         0.05 Mb     (    150,   24)
        Each subspace H/S matrix        0.01 Mb     (  24,  24)
        Each <psi_i|beta_j> matrix      0.00 Mb     (      4,    6)
        Arrays for rho mixing           0.41 Mb     (   3375,   8)

     Initial potential from superposition of free atoms

     starting charge    2.99794, renormalised to    3.00000
     Starting wfc are    4 atomic +    2 random wfc

     total cpu time spent up to now is        0.1 secs

     per-process dynamical memory:     3.0 Mb

     Self-consistent Calculation

     iteration #  1     ecut=    18.00 Ry     beta=0.70
     Davidson diagonalization with overlap
     ethr =  1.00E-02,  avg # of iterations =  4.6

     Threshold (ethr) on eigenvalues was too large:
     Diagonalizing with lowered threshold

     Davidson diagonalization with overlap
     ethr =  1.80E-04,  avg # of iterations =  1.4

     total cpu time spent up to now is        0.4 secs

     total energy              =      -4.19297522 Ry
     Harris-Foulkes estimate   =      -4.19380083 Ry
     estimated scf accuracy    <       0.00540205 Ry

     iteration #  2     ecut=    18.00 Ry     beta=0.70
     Davidson diagonalization with overlap
     ethr =  1.80E-04,  avg # of iterations =  1.0

     total cpu time spent up to now is        0.4 secs

     total energy              =      -4.19297214 Ry
     Harris-Foulkes estimate   =      -4.19300344 Ry
     estimated scf accuracy    <       0.00040542 Ry

     iteration #  3     ecut=    18.00 Ry     beta=0.70
     Davidson diagonalization with overlap
     ethr =  1.35E-05,  avg # of iterations =  1.4

     total cpu time spent up to now is        0.5 secs

     total energy              =      -4.19297556 Ry
     Harris-Foulkes estimate   =      -4.19297545 Ry
     estimated scf accuracy    <       0.00000035 Ry

     iteration #  4     ecut=    18.00 Ry     beta=0.70
     Davidson diagonalization with overlap
     ethr =  1.16E-08,  avg # of iterations =  1.5

     total cpu time spent up to now is        0.5 secs

     End of self-consistent calculation

          k = 0.0000 0.0000 0.0000 (   137 PWs)   bands (ev):

    -3.3279  20.5272  20.5272  21.6430  21.6430  21.6430

          k =-0.1667 0.1667-0.1667 (   150 PWs)   bands (ev):

    -2.5592  14.4670  19.1306  19.1306  22.3456  23.6734

          k =-0.3333 0.3333-0.3333 (   144 PWs)   bands (ev):

    -0.2878   8.3654  18.5394  18.5394  21.1500  21.1500

          k = 0.5000-0.5000 0.5000 (   138 PWs)   bands (ev):

     3.3349   3.4576  19.0698  19.0698  19.3545  19.3545

          k = 0.0000 0.3333 0.0000 (   141 PWs)   bands (ev):

    -2.3041  16.8087  16.8087  17.0074  19.9142  20.3821

          k =-0.1667 0.5000-0.1667 (   143 PWs)   bands (ev):

    -0.5373  10.8527  15.7629  16.5061  17.4193  22.2327

          k = 0.6667-0.3333 0.6667 (   146 PWs)   bands (ev):

     2.6634   5.5464  14.0546  15.9848  17.7897  23.7836

          k = 0.5000-0.1667 0.5000 (   141 PWs)   bands (ev):

     1.4453   7.1739  12.9548  17.4787  19.4442  22.7190

          k = 0.3333 0.0000 0.3333 (   143 PWs)   bands (ev):

    -1.2909  12.3164  13.7488  20.1867  22.2833  22.5178

          k = 0.0000 0.6667 0.0000 (   141 PWs)   bands (ev):

     0.7060  12.2265  14.0533  14.2866  14.2866  17.7782

          k = 0.8333-0.1667 0.8333 (   139 PWs)   bands (ev):

     3.3742   8.8910   9.3778  14.0819  15.5771  20.6940

          k = 0.6667-0.0000 0.6667 (   142 PWs)   bands (ev):

     4.5800   6.8167   8.2596  15.1400  16.9198  26.4496

          k = 0.0000-1.0000 0.0000 (   150 PWs)   bands (ev):

     5.0011   6.2410  13.0500  13.4493  13.4493  16.9034

          k = 0.6667-0.3333 1.0000 (   143 PWs)   bands (ev):

     1.6891   9.5585  11.0370  13.2222  20.6475  22.1329

          k = 0.5000-0.1667 0.8333 (   142 PWs)   bands (ev):

     5.1635   5.4045  10.8477  11.4573  21.7415  22.3896

          k =-0.3333-1.0000 0.0000 (   136 PWs)   bands (ev):

     5.9092   7.2054   8.6419  10.2416  19.7502  21.5012

     the Fermi energy is     8.2180 ev

!    total energy              =      -4.19297558 Ry
     Harris-Foulkes estimate   =      -4.19297558 Ry
     estimated scf accuracy    <          3.5E-09 Ry

     The total energy is the sum of the following terms:

     one-electron contribution =       2.84260536 Ry
     hartree contribution      =       0.00859575 Ry
     xc contribution           =      -1.61450065 Ry
     ewald contribution        =      -5.42944195 Ry
     smearing contrib. (-TS)   =      -0.00023409 Ry

     convergence has been achieved in   4 iterations

     Writing output data file Alk1570.save

     init_run     :      0.03s CPU      0.03s WALL (       1 calls)
     electrons    :      0.18s CPU      0.42s WALL (       1 calls)

     Called by init_run:
     wfcinit      :      0.01s CPU      0.01s WALL (       1 calls)
     potinit      :      0.00s CPU      0.00s WALL (       1 calls)

     Called by electrons:
     c_bands      :      0.15s CPU      0.16s WALL (       5 calls)
     sum_band     :      0.02s CPU      0.02s WALL (       5 calls)
     v_of_rho     :      0.01s CPU      0.00s WALL (       5 calls)
     mix_rho      :      0.00s CPU      0.00s WALL (       5 calls)

     Called by c_bands:
     init_us_2    :      0.00s CPU      0.01s WALL (     176 calls)
     cegterg      :      0.15s CPU      0.15s WALL (      80 calls)

     Called by *egterg:
     h_psi        :      0.10s CPU      0.11s WALL (     255 calls)
     g_psi        :      0.00s CPU      0.00s WALL (     159 calls)
     cdiaghg      :      0.03s CPU      0.03s WALL (     223 calls)

     Called by h_psi:
     add_vuspsi   :      0.00s CPU      0.00s WALL (     255 calls)

     General routines
     calbec       :      0.00s CPU      0.00s WALL (     255 calls)
     fft          :      0.00s CPU      0.00s WALL (      21 calls)
     fftw         :      0.10s CPU      0.11s WALL (    3048 calls)
     davcio       :      0.00s CPU      0.00s WALL (     256 calls)

     Parallel routines

     PWSCF        :     0.33s CPU         0.69s WALL


   This run was terminated on:  17:34: 3  30Sep2016            

=------------------------------------------------------------------------------=
   JOB DONE.
=------------------------------------------------------------------------------=
