
     Program PWSCF v.4.3.2      starts on 30Sep2016 at 17:34: 6 

     This program is part of the open-source Quantum ESPRESSO suite
     for quantum simulation of materials; please cite
         "P. Giannozzi et al., J. Phys.:Condens. Matter 21 395502 (2009);
          URL http://www.quantum-espresso.org", 
     in publications or presentations arising from this work. More details at
     http://www.quantum-espresso.org/wiki/index.php/Citing_Quantum-ESPRESSO

     Parallel version (MPI), running on     1 processors

     Current dimensions of program PWSCF are:
     Max number of different atomic species (ntypx) = 10
     Max number of k-points (npk) =  40000
     Max angular momentum in pseudopotentials (lmaxx) =  3
     Waiting for input...
     Reading input from stdin
Warning: card  &IONS ignored
Warning: card  / ignored

     Subspace diagonalization in iterative solution of the eigenvalue problem:
     a serial algorithm will be used


     G-vector sticks info
     --------------------
     sticks:   dense  smooth     PW     G-vecs:    dense   smooth      PW
     Sum         151     151     55                 1243     1243     283



     bravais-lattice index     =            2
     lattice parameter (alat)  =       7.8000  a.u.
     unit-cell volume          =     118.6380 (a.u.)^3
     number of atoms/cell      =            1
     number of atomic types    =            1
     number of electrons       =         3.00
     number of Kohn-Sham states=            6
     kinetic-energy cutoff     =      18.0000  Ry
     charge density cutoff     =      72.0000  Ry
     convergence threshold     =      1.0E-08
     mixing beta               =       0.7000
     number of iterations used =            8  plain     mixing
     Exchange-correlation      =  SLA  PZ   NOGX NOGC ( 1 1 0 0 0)
     EXX-fraction              =        0.00

     celldm(1)=   7.800000  celldm(2)=   0.000000  celldm(3)=   0.000000
     celldm(4)=   0.000000  celldm(5)=   0.000000  celldm(6)=   0.000000

     crystal axes: (cart. coord. in units of alat)
               a(1) = (  -0.500000   0.000000   0.500000 )  
               a(2) = (   0.000000   0.500000   0.500000 )  
               a(3) = (  -0.500000   0.500000   0.000000 )  

     reciprocal axes: (cart. coord. in units 2 pi/alat)
               b(1) = ( -1.000000 -1.000000  1.000000 )  
               b(2) = (  1.000000  1.000000  1.000000 )  
               b(3) = ( -1.000000  1.000000 -1.000000 )  


     PseudoPot. # 1 for Al read from file:
     pseudopot/Al.pz-vbc.UPF
     MD5 check sum: 614279c88ff8d45c90147292d03ed420
     Pseudo is Norm-conserving, Zval =  3.0
     Generated by new atomic code, or converted to UPF format
     Using radial grid of  171 points,  2 beta functions with: 
                l(1) =   0
                l(2) =   1

     atomic species   valence    mass     pseudopotential
        Al             3.00    26.98100     Al( 1.00)

     48 Sym.Ops. (with inversion)


   Cartesian axes

     site n.     atom                  positions (alat units)
         1           Al  tau(   1) = (   0.0000000   0.0000000   0.0000000  )

     number of k points=    16  Methfessel-Paxton smearing, width (Ry)=  0.0200
                       cart. coord. in units 2pi/alat
        k(    1) = (   0.0000000   0.0000000   0.0000000), wk =   0.0092593
        k(    2) = (  -0.1666667   0.1666667  -0.1666667), wk =   0.0740741
        k(    3) = (  -0.3333333   0.3333333  -0.3333333), wk =   0.0740741
        k(    4) = (   0.5000000  -0.5000000   0.5000000), wk =   0.0370370
        k(    5) = (   0.0000000   0.3333333   0.0000000), wk =   0.0555556
        k(    6) = (  -0.1666667   0.5000000  -0.1666667), wk =   0.2222222
        k(    7) = (   0.6666667  -0.3333333   0.6666667), wk =   0.2222222
        k(    8) = (   0.5000000  -0.1666667   0.5000000), wk =   0.2222222
        k(    9) = (   0.3333333   0.0000000   0.3333333), wk =   0.1111111
        k(   10) = (   0.0000000   0.6666667   0.0000000), wk =   0.0555556
        k(   11) = (   0.8333333  -0.1666667   0.8333333), wk =   0.2222222
        k(   12) = (   0.6666667  -0.0000000   0.6666667), wk =   0.1111111
        k(   13) = (   0.0000000  -1.0000000   0.0000000), wk =   0.0277778
        k(   14) = (   0.6666667  -0.3333333   1.0000000), wk =   0.2222222
        k(   15) = (   0.5000000  -0.1666667   0.8333333), wk =   0.2222222
        k(   16) = (  -0.3333333  -1.0000000   0.0000000), wk =   0.1111111

     Dense  grid:     1243 G-vectors     FFT dimensions: (  15,  15,  15)

     Largest allocated arrays     est. size (Mb)     dimensions
        Kohn-Sham Wavefunctions         0.02 Mb     (    169,    6)
        NL pseudopotentials             0.01 Mb     (    169,    4)
        Each V/rho on FFT grid          0.05 Mb     (   3375)
        Each G-vector array             0.01 Mb     (   1243)
        G-vector shells                 0.00 Mb     (     39)
     Largest temporary arrays     est. size (Mb)     dimensions
        Auxiliary wavefunctions         0.06 Mb     (    169,   24)
        Each subspace H/S matrix        0.01 Mb     (  24,  24)
        Each <psi_i|beta_j> matrix      0.00 Mb     (      4,    6)
        Arrays for rho mixing           0.41 Mb     (   3375,   8)

     Initial potential from superposition of free atoms

     starting charge    2.99794, renormalised to    3.00000
     Starting wfc are    4 atomic +    2 random wfc

     total cpu time spent up to now is        0.1 secs

     per-process dynamical memory:     3.0 Mb

     Self-consistent Calculation

     iteration #  1     ecut=    18.00 Ry     beta=0.70
     Davidson diagonalization with overlap
     ethr =  1.00E-02,  avg # of iterations =  4.4

     Threshold (ethr) on eigenvalues was too large:
     Diagonalizing with lowered threshold

     Davidson diagonalization with overlap
     ethr =  1.79E-04,  avg # of iterations =  1.7

     total cpu time spent up to now is        0.2 secs

     total energy              =      -4.18974465 Ry
     Harris-Foulkes estimate   =      -4.19065821 Ry
     estimated scf accuracy    <       0.00534200 Ry

     iteration #  2     ecut=    18.00 Ry     beta=0.70
     Davidson diagonalization with overlap
     ethr =  1.78E-04,  avg # of iterations =  1.3

     total cpu time spent up to now is        0.2 secs

     total energy              =      -4.18973620 Ry
     Harris-Foulkes estimate   =      -4.18977849 Ry
     estimated scf accuracy    <       0.00038677 Ry

     iteration #  3     ecut=    18.00 Ry     beta=0.70
     Davidson diagonalization with overlap
     ethr =  1.29E-05,  avg # of iterations =  1.4

     total cpu time spent up to now is        0.2 secs

     total energy              =      -4.18974013 Ry
     Harris-Foulkes estimate   =      -4.18974004 Ry
     estimated scf accuracy    <       0.00000038 Ry

     iteration #  4     ecut=    18.00 Ry     beta=0.70
     Davidson diagonalization with overlap
     ethr =  1.25E-08,  avg # of iterations =  1.7

     total cpu time spent up to now is        0.3 secs

     End of self-consistent calculation

          k = 0.0000 0.0000 0.0000 (   169 PWs)   bands (ev):

    -3.5733  19.3184  19.3184  19.9322  19.9322  19.9322

          k =-0.1667 0.1667-0.1667 (   153 PWs)   bands (ev):

    -2.8437  13.4032  17.7977  17.7977  20.8397  22.0286

          k =-0.3333 0.3333-0.3333 (   153 PWs)   bands (ev):

    -0.6852   7.5708  17.1958  17.1958  19.7709  19.7709

          k = 0.5000-0.5000 0.5000 (   156 PWs)   bands (ev):

     2.7898   2.8558  17.5395  17.5395  18.2213  18.2213

          k = 0.0000 0.3333 0.0000 (   153 PWs)   bands (ev):

    -2.6015  15.5704  15.5704  16.0127  18.1844  19.1999

          k =-0.1667 0.5000-0.1667 (   152 PWs)   bands (ev):

    -0.9220   9.9578  14.5611  15.3160  16.1989  20.6974

          k = 0.6667-0.3333 0.6667 (   158 PWs)   bands (ev):

     2.1286   4.8764  12.9670  14.7707  16.5327  22.2643

          k = 0.5000-0.1667 0.5000 (   153 PWs)   bands (ev):

     0.9657   6.4371  11.9050  16.1875  18.1108  21.2688

          k = 0.3333 0.0000 0.3333 (   154 PWs)   bands (ev):

    -1.6388  11.4065  12.6037  18.7092  20.8242  21.2036

          k = 0.0000 0.6667 0.0000 (   153 PWs)   bands (ev):

     0.2620  11.2471  13.1422  13.1422  13.2156  16.2912

          k = 0.8333-0.1667 0.8333 (   152 PWs)   bands (ev):

     2.8114   8.1570   8.4340  12.9437  14.4511  19.2071

          k = 0.6667-0.0000 0.6667 (   150 PWs)   bands (ev):

     3.9667   6.1519   7.3651  13.9581  15.7055  24.7392

          k = 0.0000-1.0000 0.0000 (   150 PWs)   bands (ev):

     4.4117   5.4760  12.2648  12.3380  12.3380  15.4530

          k = 0.6667-0.3333 1.0000 (   150 PWs)   bands (ev):

     1.1995   8.7764  10.0417  12.1248  19.3484  20.5248

          k = 0.5000-0.1667 0.8333 (   156 PWs)   bands (ev):

     4.6049   4.6648  10.0413  10.3051  20.2469  20.9714

          k =-0.3333-1.0000 0.0000 (   150 PWs)   bands (ev):

     5.2808   6.4190   7.9001   9.1839  18.4899  19.9188

     the Fermi energy is     7.3406 ev

!    total energy              =      -4.18974015 Ry
     Harris-Foulkes estimate   =      -4.18974015 Ry
     estimated scf accuracy    <          1.6E-09 Ry

     The total energy is the sum of the following terms:

     one-electron contribution =       2.66961268 Ry
     hartree contribution      =       0.00803599 Ry
     xc contribution           =      -1.57693723 Ry
     ewald contribution        =      -5.29022549 Ry
     smearing contrib. (-TS)   =      -0.00022610 Ry

     convergence has been achieved in   4 iterations

     Writing output data file Alk1570.save

     init_run     :      0.03s CPU      0.03s WALL (       1 calls)
     electrons    :      0.18s CPU      0.21s WALL (       1 calls)

     Called by init_run:
     wfcinit      :      0.01s CPU      0.01s WALL (       1 calls)
     potinit      :      0.00s CPU      0.00s WALL (       1 calls)

     Called by electrons:
     c_bands      :      0.15s CPU      0.16s WALL (       5 calls)
     sum_band     :      0.03s CPU      0.02s WALL (       5 calls)
     v_of_rho     :      0.00s CPU      0.00s WALL (       5 calls)
     mix_rho      :      0.00s CPU      0.00s WALL (       5 calls)

     Called by c_bands:
     init_us_2    :      0.00s CPU      0.01s WALL (     176 calls)
     cegterg      :      0.15s CPU      0.16s WALL (      80 calls)

     Called by *egterg:
     h_psi        :      0.10s CPU      0.12s WALL (     263 calls)
     g_psi        :      0.00s CPU      0.00s WALL (     167 calls)
     cdiaghg      :      0.04s CPU      0.03s WALL (     231 calls)

     Called by h_psi:
     add_vuspsi   :      0.00s CPU      0.00s WALL (     263 calls)

     General routines
     calbec       :      0.00s CPU      0.00s WALL (     263 calls)
     fft          :      0.00s CPU      0.00s WALL (      21 calls)
     fftw         :      0.08s CPU      0.11s WALL (    3038 calls)
     davcio       :      0.00s CPU      0.00s WALL (     256 calls)

     Parallel routines

     PWSCF        :     0.34s CPU         0.48s WALL


   This run was terminated on:  17:34: 7  30Sep2016            

=------------------------------------------------------------------------------=
   JOB DONE.
=------------------------------------------------------------------------------=
