
     Program PWSCF v.4.3.2      starts on 30Sep2016 at 17:41:28 

     This program is part of the open-source Quantum ESPRESSO suite
     for quantum simulation of materials; please cite
         "P. Giannozzi et al., J. Phys.:Condens. Matter 21 395502 (2009);
          URL http://www.quantum-espresso.org", 
     in publications or presentations arising from this work. More details at
     http://www.quantum-espresso.org/wiki/index.php/Citing_Quantum-ESPRESSO

     Parallel version (MPI), running on     1 processors

     Current dimensions of program PWSCF are:
     Max number of different atomic species (ntypx) = 10
     Max number of k-points (npk) =  40000
     Max angular momentum in pseudopotentials (lmaxx) =  3
     Waiting for input...
     Reading input from stdin
Warning: card  &IONS ignored
Warning: card  / ignored

     Subspace diagonalization in iterative solution of the eigenvalue problem:
     a serial algorithm will be used


     G-vector sticks info
     --------------------
     sticks:   dense  smooth     PW     G-vecs:    dense   smooth      PW
     Sum         121     121     55                  941      941     259



     bravais-lattice index     =            2
     lattice parameter (alat)  =       7.2000  a.u.
     unit-cell volume          =      93.3120 (a.u.)^3
     number of atoms/cell      =            1
     number of atomic types    =            1
     number of electrons       =         3.00
     number of Kohn-Sham states=            6
     kinetic-energy cutoff     =      18.0000  Ry
     charge density cutoff     =      72.0000  Ry
     convergence threshold     =      1.0E-08
     mixing beta               =       0.7000
     number of iterations used =            8  plain     mixing
     Exchange-correlation      =  SLA  PZ   NOGX NOGC ( 1 1 0 0 0)
     EXX-fraction              =        0.00

     celldm(1)=   7.200000  celldm(2)=   0.000000  celldm(3)=   0.000000
     celldm(4)=   0.000000  celldm(5)=   0.000000  celldm(6)=   0.000000

     crystal axes: (cart. coord. in units of alat)
               a(1) = (  -0.500000   0.000000   0.500000 )  
               a(2) = (   0.000000   0.500000   0.500000 )  
               a(3) = (  -0.500000   0.500000   0.000000 )  

     reciprocal axes: (cart. coord. in units 2 pi/alat)
               b(1) = ( -1.000000 -1.000000  1.000000 )  
               b(2) = (  1.000000  1.000000  1.000000 )  
               b(3) = ( -1.000000  1.000000 -1.000000 )  


     PseudoPot. # 1 for Al read from file:
     pseudopot/Al.pz-vbc.UPF
     MD5 check sum: 614279c88ff8d45c90147292d03ed420
     Pseudo is Norm-conserving, Zval =  3.0
     Generated by new atomic code, or converted to UPF format
     Using radial grid of  171 points,  2 beta functions with: 
                l(1) =   0
                l(2) =   1

     atomic species   valence    mass     pseudopotential
        Al             3.00    26.98100     Al( 1.00)

     48 Sym.Ops. (with inversion)


   Cartesian axes

     site n.     atom                  positions (alat units)
         1           Al  tau(   1) = (   0.0000000   0.0000000   0.0000000  )

     number of k points=    16  Methfessel-Paxton smearing, width (Ry)=  0.0200
                       cart. coord. in units 2pi/alat
        k(    1) = (   0.0000000   0.0000000   0.0000000), wk =   0.0092593
        k(    2) = (  -0.1666667   0.1666667  -0.1666667), wk =   0.0740741
        k(    3) = (  -0.3333333   0.3333333  -0.3333333), wk =   0.0740741
        k(    4) = (   0.5000000  -0.5000000   0.5000000), wk =   0.0370370
        k(    5) = (   0.0000000   0.3333333   0.0000000), wk =   0.0555556
        k(    6) = (  -0.1666667   0.5000000  -0.1666667), wk =   0.2222222
        k(    7) = (   0.6666667  -0.3333333   0.6666667), wk =   0.2222222
        k(    8) = (   0.5000000  -0.1666667   0.5000000), wk =   0.2222222
        k(    9) = (   0.3333333   0.0000000   0.3333333), wk =   0.1111111
        k(   10) = (   0.0000000   0.6666667   0.0000000), wk =   0.0555556
        k(   11) = (   0.8333333  -0.1666667   0.8333333), wk =   0.2222222
        k(   12) = (   0.6666667  -0.0000000   0.6666667), wk =   0.1111111
        k(   13) = (   0.0000000  -1.0000000   0.0000000), wk =   0.0277778
        k(   14) = (   0.6666667  -0.3333333   1.0000000), wk =   0.2222222
        k(   15) = (   0.5000000  -0.1666667   0.8333333), wk =   0.2222222
        k(   16) = (  -0.3333333  -1.0000000   0.0000000), wk =   0.1111111

     Dense  grid:      941 G-vectors     FFT dimensions: (  15,  15,  15)

     Largest allocated arrays     est. size (Mb)     dimensions
        Kohn-Sham Wavefunctions         0.01 Mb     (    129,    6)
        NL pseudopotentials             0.01 Mb     (    129,    4)
        Each V/rho on FFT grid          0.05 Mb     (   3375)
        Each G-vector array             0.01 Mb     (    941)
        G-vector shells                 0.00 Mb     (     33)
     Largest temporary arrays     est. size (Mb)     dimensions
        Auxiliary wavefunctions         0.05 Mb     (    129,   24)
        Each subspace H/S matrix        0.01 Mb     (  24,  24)
        Each <psi_i|beta_j> matrix      0.00 Mb     (      4,    6)
        Arrays for rho mixing           0.41 Mb     (   3375,   8)

     Initial potential from superposition of free atoms

     starting charge    2.99794, renormalised to    3.00000
     Starting wfc are    4 atomic +    2 random wfc

     total cpu time spent up to now is        0.1 secs

     per-process dynamical memory:     3.0 Mb

     Self-consistent Calculation

     iteration #  1     ecut=    18.00 Ry     beta=0.70
     Davidson diagonalization with overlap
     ethr =  1.00E-02,  avg # of iterations =  4.4

     Threshold (ethr) on eigenvalues was too large:
     Diagonalizing with lowered threshold

     Davidson diagonalization with overlap
     ethr =  1.91E-04,  avg # of iterations =  1.4

     total cpu time spent up to now is        0.2 secs

     total energy              =      -4.18844598 Ry
     Harris-Foulkes estimate   =      -4.18906891 Ry
     estimated scf accuracy    <       0.00570350 Ry

     iteration #  2     ecut=    18.00 Ry     beta=0.70
     Davidson diagonalization with overlap
     ethr =  1.90E-04,  avg # of iterations =  1.0

     total cpu time spent up to now is        0.2 secs

     total energy              =      -4.18846622 Ry
     Harris-Foulkes estimate   =      -4.18846541 Ry
     estimated scf accuracy    <       0.00045679 Ry

     iteration #  3     ecut=    18.00 Ry     beta=0.70
     Davidson diagonalization with overlap
     ethr =  1.52E-05,  avg # of iterations =  1.4

     total cpu time spent up to now is        0.2 secs

     total energy              =      -4.18846885 Ry
     Harris-Foulkes estimate   =      -4.18846872 Ry
     estimated scf accuracy    <       0.00000026 Ry

     iteration #  4     ecut=    18.00 Ry     beta=0.70
     Davidson diagonalization with overlap
     ethr =  8.63E-09,  avg # of iterations =  1.8

     total cpu time spent up to now is        0.3 secs

     End of self-consistent calculation

          k = 0.0000 0.0000 0.0000 (   113 PWs)   bands (ev):

    -2.7418  23.2603  23.2603  25.4887  25.4888  25.4888

          k =-0.1667 0.1667-0.1667 (   122 PWs)   bands (ev):

    -1.8853  16.8382  22.0811  22.0811  25.7281  27.4794

          k =-0.3333 0.3333-0.3333 (   117 PWs)   bands (ev):

     0.6352  10.1667  21.4806  21.4806  24.3725  24.3725

          k = 0.5000-0.5000 0.5000 (   120 PWs)   bands (ev):

     4.4425   4.9692  21.9157  21.9157  22.5518  22.5518

          k = 0.0000 0.3333 0.0000 (   125 PWs)   bands (ev):

    -1.6015  19.2499  19.5878  19.5878  23.0413  23.8698

          k =-0.1667 0.5000-0.1667 (   120 PWs)   bands (ev):

     0.3591  12.8597  18.4735  18.9423  20.4097  25.7904

          k = 0.6667-0.3333 0.6667 (   119 PWs)   bands (ev):

     3.8748   7.0859  16.4376  18.7206  20.7393  27.2573

          k = 0.5000-0.1667 0.5000 (   121 PWs)   bands (ev):

     2.5443   8.8486  15.3007  20.3549  22.5256  26.0366

          k = 0.3333 0.0000 0.3333 (   127 PWs)   bands (ev):

    -0.4764  14.3610  16.3083  23.4119  25.4887  25.6040

          k = 0.0000 0.6667 0.0000 (   129 PWs)   bands (ev):

     1.7306  14.3536  15.9403  16.8845  16.8845  21.2966

          k = 0.8333-0.1667 0.8333 (   120 PWs)   bands (ev):

     4.6553  10.5336  11.4817  16.6701  18.1884  24.1382

          k = 0.6667-0.0000 0.6667 (   122 PWs)   bands (ev):

     5.9542   8.3485  10.2727  17.8117  19.7402  30.3402

          k = 0.0000-1.0000 0.0000 (   116 PWs)   bands (ev):

     6.3823   7.9024  14.8188  15.9949  15.9949  20.3194

          k = 0.6667-0.3333 1.0000 (   122 PWs)   bands (ev):

     2.8124  11.3332  13.1944  15.8013  23.5911  25.8311

          k = 0.5000-0.1667 0.8333 (   114 PWs)   bands (ev):

     6.4508   7.0595  12.6658  14.1144  25.1250  25.6124

          k =-0.3333-1.0000 0.0000 (   112 PWs)   bands (ev):

     7.3637   8.8620  10.3302  12.7614  22.6113  25.1350

     the Fermi energy is    10.1441 ev

!    total energy              =      -4.18846887 Ry
     Harris-Foulkes estimate   =      -4.18846887 Ry
     estimated scf accuracy    <          6.0E-09 Ry

     The total energy is the sum of the following terms:

     one-electron contribution =       3.22798775 Ry
     hartree contribution      =       0.01243314 Ry
     xc contribution           =      -1.69770638 Ry
     ewald contribution        =      -5.73107761 Ry
     smearing contrib. (-TS)   =      -0.00010577 Ry

     convergence has been achieved in   4 iterations

     Writing output data file Alk1570.save

     init_run     :      0.03s CPU      0.04s WALL (       1 calls)
     electrons    :      0.19s CPU      0.20s WALL (       1 calls)

     Called by init_run:
     wfcinit      :      0.01s CPU      0.01s WALL (       1 calls)
     potinit      :      0.00s CPU      0.00s WALL (       1 calls)

     Called by electrons:
     c_bands      :      0.16s CPU      0.15s WALL (       5 calls)
     sum_band     :      0.02s CPU      0.02s WALL (       5 calls)
     v_of_rho     :      0.00s CPU      0.00s WALL (       5 calls)
     mix_rho      :      0.00s CPU      0.00s WALL (       5 calls)

     Called by c_bands:
     init_us_2    :      0.01s CPU      0.01s WALL (     176 calls)
     cegterg      :      0.15s CPU      0.15s WALL (      80 calls)

     Called by *egterg:
     h_psi        :      0.10s CPU      0.12s WALL (     256 calls)
     g_psi        :      0.00s CPU      0.00s WALL (     160 calls)
     cdiaghg      :      0.02s CPU      0.03s WALL (     224 calls)

     Called by h_psi:
     add_vuspsi   :      0.00s CPU      0.00s WALL (     256 calls)

     General routines
     calbec       :      0.00s CPU      0.00s WALL (     256 calls)
     fft          :      0.00s CPU      0.00s WALL (      21 calls)
     fftw         :      0.09s CPU      0.11s WALL (    3052 calls)
     davcio       :      0.00s CPU      0.00s WALL (     256 calls)

     Parallel routines

     PWSCF        :     0.34s CPU         0.47s WALL


   This run was terminated on:  17:41:28  30Sep2016            

=------------------------------------------------------------------------------=
   JOB DONE.
=------------------------------------------------------------------------------=
