
     Program PWSCF v.4.3.2      starts on 30Sep2016 at 17:34:37 

     This program is part of the open-source Quantum ESPRESSO suite
     for quantum simulation of materials; please cite
         "P. Giannozzi et al., J. Phys.:Condens. Matter 21 395502 (2009);
          URL http://www.quantum-espresso.org", 
     in publications or presentations arising from this work. More details at
     http://www.quantum-espresso.org/wiki/index.php/Citing_Quantum-ESPRESSO

     Parallel version (MPI), running on     1 processors

     Current dimensions of program PWSCF are:
     Max number of different atomic species (ntypx) = 10
     Max number of k-points (npk) =  40000
     Max angular momentum in pseudopotentials (lmaxx) =  3
     Waiting for input...
     Reading input from stdin
Warning: card  &IONS ignored
Warning: card  / ignored

     Subspace diagonalization in iterative solution of the eigenvalue problem:
     a serial algorithm will be used


     G-vector sticks info
     --------------------
     sticks:   dense  smooth     PW     G-vecs:    dense   smooth      PW
     Sum         187     187     61                 1591     1591     339



     bravais-lattice index     =            2
     lattice parameter (alat)  =       8.5000  a.u.
     unit-cell volume          =     153.5313 (a.u.)^3
     number of atoms/cell      =            1
     number of atomic types    =            1
     number of electrons       =         3.00
     number of Kohn-Sham states=            6
     kinetic-energy cutoff     =      18.0000  Ry
     charge density cutoff     =      72.0000  Ry
     convergence threshold     =      1.0E-08
     mixing beta               =       0.7000
     number of iterations used =            8  plain     mixing
     Exchange-correlation      =  SLA  PZ   NOGX NOGC ( 1 1 0 0 0)
     EXX-fraction              =        0.00

     celldm(1)=   8.500000  celldm(2)=   0.000000  celldm(3)=   0.000000
     celldm(4)=   0.000000  celldm(5)=   0.000000  celldm(6)=   0.000000

     crystal axes: (cart. coord. in units of alat)
               a(1) = (  -0.500000   0.000000   0.500000 )  
               a(2) = (   0.000000   0.500000   0.500000 )  
               a(3) = (  -0.500000   0.500000   0.000000 )  

     reciprocal axes: (cart. coord. in units 2 pi/alat)
               b(1) = ( -1.000000 -1.000000  1.000000 )  
               b(2) = (  1.000000  1.000000  1.000000 )  
               b(3) = ( -1.000000  1.000000 -1.000000 )  


     PseudoPot. # 1 for Al read from file:
     pseudopot/Al.pz-vbc.UPF
     MD5 check sum: 614279c88ff8d45c90147292d03ed420
     Pseudo is Norm-conserving, Zval =  3.0
     Generated by new atomic code, or converted to UPF format
     Using radial grid of  171 points,  2 beta functions with: 
                l(1) =   0
                l(2) =   1

     atomic species   valence    mass     pseudopotential
        Al             3.00    26.98100     Al( 1.00)

     48 Sym.Ops. (with inversion)


   Cartesian axes

     site n.     atom                  positions (alat units)
         1           Al  tau(   1) = (   0.0000000   0.0000000   0.0000000  )

     number of k points=    16  Methfessel-Paxton smearing, width (Ry)=  0.0200
                       cart. coord. in units 2pi/alat
        k(    1) = (   0.0000000   0.0000000   0.0000000), wk =   0.0092593
        k(    2) = (  -0.1666667   0.1666667  -0.1666667), wk =   0.0740741
        k(    3) = (  -0.3333333   0.3333333  -0.3333333), wk =   0.0740741
        k(    4) = (   0.5000000  -0.5000000   0.5000000), wk =   0.0370370
        k(    5) = (   0.0000000   0.3333333   0.0000000), wk =   0.0555556
        k(    6) = (  -0.1666667   0.5000000  -0.1666667), wk =   0.2222222
        k(    7) = (   0.6666667  -0.3333333   0.6666667), wk =   0.2222222
        k(    8) = (   0.5000000  -0.1666667   0.5000000), wk =   0.2222222
        k(    9) = (   0.3333333   0.0000000   0.3333333), wk =   0.1111111
        k(   10) = (   0.0000000   0.6666667   0.0000000), wk =   0.0555556
        k(   11) = (   0.8333333  -0.1666667   0.8333333), wk =   0.2222222
        k(   12) = (   0.6666667  -0.0000000   0.6666667), wk =   0.1111111
        k(   13) = (   0.0000000  -1.0000000   0.0000000), wk =   0.0277778
        k(   14) = (   0.6666667  -0.3333333   1.0000000), wk =   0.2222222
        k(   15) = (   0.5000000  -0.1666667   0.8333333), wk =   0.2222222
        k(   16) = (  -0.3333333  -1.0000000   0.0000000), wk =   0.1111111

     Dense  grid:     1591 G-vectors     FFT dimensions: (  18,  18,  18)

     Largest allocated arrays     est. size (Mb)     dimensions
        Kohn-Sham Wavefunctions         0.02 Mb     (    210,    6)
        NL pseudopotentials             0.01 Mb     (    210,    4)
        Each V/rho on FFT grid          0.09 Mb     (   5832)
        Each G-vector array             0.01 Mb     (   1591)
        G-vector shells                 0.00 Mb     (     45)
     Largest temporary arrays     est. size (Mb)     dimensions
        Auxiliary wavefunctions         0.08 Mb     (    210,   24)
        Each subspace H/S matrix        0.01 Mb     (  24,  24)
        Each <psi_i|beta_j> matrix      0.00 Mb     (      4,    6)
        Arrays for rho mixing           0.71 Mb     (   5832,   8)

     Initial potential from superposition of free atoms

     starting charge    2.99794, renormalised to    3.00000
     Starting wfc are    4 atomic +    2 random wfc

     total cpu time spent up to now is        0.1 secs

     per-process dynamical memory:     3.4 Mb

     Self-consistent Calculation

     iteration #  1     ecut=    18.00 Ry     beta=0.70
     Davidson diagonalization with overlap
     ethr =  1.00E-02,  avg # of iterations =  4.4

     Threshold (ethr) on eigenvalues was too large:
     Diagonalizing with lowered threshold

     Davidson diagonalization with overlap
     ethr =  1.81E-04,  avg # of iterations =  1.3

     total cpu time spent up to now is        0.3 secs

     total energy              =      -4.16244102 Ry
     Harris-Foulkes estimate   =      -4.16361708 Ry
     estimated scf accuracy    <       0.00524465 Ry

     iteration #  2     ecut=    18.00 Ry     beta=0.70
     Davidson diagonalization with overlap
     ethr =  1.75E-04,  avg # of iterations =  1.0

     total cpu time spent up to now is        0.4 secs

     total energy              =      -4.16244506 Ry
     Harris-Foulkes estimate   =      -4.16250746 Ry
     estimated scf accuracy    <       0.00032843 Ry

     iteration #  3     ecut=    18.00 Ry     beta=0.70
     Davidson diagonalization with overlap
     ethr =  1.09E-05,  avg # of iterations =  1.9

     total cpu time spent up to now is        0.4 secs

     total energy              =      -4.16245162 Ry
     Harris-Foulkes estimate   =      -4.16245158 Ry
     estimated scf accuracy    <       0.00000043 Ry

     iteration #  4     ecut=    18.00 Ry     beta=0.70
     Davidson diagonalization with overlap
     ethr =  1.44E-08,  avg # of iterations =  2.3

     total cpu time spent up to now is        0.5 secs

     End of self-consistent calculation

          k = 0.0000 0.0000 0.0000 (   181 PWs)   bands (ev):

    -4.2484  14.9474  14.9474  14.9474  15.7653  15.7653

          k =-0.1667 0.1667-0.1667 (   193 PWs)   bands (ev):

    -3.6377  10.2006  13.7210  13.7210  16.3994  17.3836

          k =-0.3333 0.3333-0.3333 (   198 PWs)   bands (ev):

    -1.8266   5.2336  13.0941  13.0941  15.8771  15.8771

          k = 0.5000-0.5000 0.5000 (   210 PWs)   bands (ev):

     0.8170   1.5147  13.0809  13.0809  14.8767  14.8767

          k = 0.0000 0.3333 0.0000 (   186 PWs)   bands (ev):

    -3.4344  11.8933  11.8933  13.0715  13.1841  15.6992

          k =-0.1667 0.5000-0.1667 (   195 PWs)   bands (ev):

    -2.0234   7.2789  11.0177  11.4214  12.9881  16.3088

          k = 0.6667-0.3333 0.6667 (   197 PWs)   bands (ev):

     0.5302   2.9612   9.6559  11.1730  13.0208  17.8536

          k = 0.5000-0.1667 0.5000 (   197 PWs)   bands (ev):

    -0.4373   4.2826   8.7798  12.3238  14.3051  17.0726

          k = 0.3333 0.0000 0.3333 (   200 PWs)   bands (ev):

    -2.6267   8.7139   9.1828  14.1988  16.5841  17.3380

          k = 0.0000 0.6667 0.0000 (   202 PWs)   bands (ev):

    -1.0215   8.1697   9.8013   9.8013  10.7361  12.2480

          k = 0.8333-0.1667 0.8333 (   203 PWs)   bands (ev):

     1.1441   5.5409   6.0582   9.6240  11.2575  14.9685

          k = 0.6667-0.0000 0.6667 (   196 PWs)   bands (ev):

     2.0844   4.2349   4.7663  10.4876  12.2574  19.7307

          k = 0.0000-1.0000 0.0000 (   190 PWs)   bands (ev):

     2.7366   3.0870   9.1028   9.1028   9.9402  11.4449

          k = 0.6667-0.3333 1.0000 (   200 PWs)   bands (ev):

    -0.2328   6.4807   6.9648   9.0594  15.5242  15.9004

          k = 0.5000-0.1667 0.8333 (   196 PWs)   bands (ev):

     2.4261   3.0014   7.0466   7.6483  15.8724  16.8192

          k =-0.3333-1.0000 0.0000 (   202 PWs)   bands (ev):

     3.4846   3.8129   5.7330   6.3918  14.7940  15.3709

     the Fermi energy is     4.7223 ev

!    total energy              =      -4.16245170 Ry
     Harris-Foulkes estimate   =      -4.16245170 Ry
     estimated scf accuracy    <          2.2E-09 Ry

     The total energy is the sum of the following terms:

     one-electron contribution =       2.14263506 Ry
     hartree contribution      =       0.01390323 Ry
     xc contribution           =      -1.46444213 Ry
     ewald contribution        =      -4.85455986 Ry
     smearing contrib. (-TS)   =       0.00001201 Ry

     convergence has been achieved in   4 iterations

     Writing output data file Alk1570.save

     init_run     :      0.06s CPU      0.06s WALL (       1 calls)
     electrons    :      0.40s CPU      0.43s WALL (       1 calls)

     Called by init_run:
     wfcinit      :      0.03s CPU      0.04s WALL (       1 calls)
     potinit      :      0.00s CPU      0.00s WALL (       1 calls)

     Called by electrons:
     c_bands      :      0.34s CPU      0.34s WALL (       5 calls)
     sum_band     :      0.05s CPU      0.05s WALL (       5 calls)
     v_of_rho     :      0.01s CPU      0.00s WALL (       5 calls)
     mix_rho      :      0.01s CPU      0.00s WALL (       5 calls)

     Called by c_bands:
     init_us_2    :      0.00s CPU      0.01s WALL (     176 calls)
     cegterg      :      0.34s CPU      0.33s WALL (      80 calls)

     Called by *egterg:
     h_psi        :      0.30s CPU      0.30s WALL (     268 calls)
     g_psi        :      0.00s CPU      0.00s WALL (     172 calls)
     cdiaghg      :      0.03s CPU      0.03s WALL (     236 calls)

     Called by h_psi:
     add_vuspsi   :      0.00s CPU      0.00s WALL (     268 calls)

     General routines
     calbec       :      0.01s CPU      0.01s WALL (     268 calls)
     fft          :      0.00s CPU      0.00s WALL (      21 calls)
     fftw         :      0.31s CPU      0.30s WALL (    3014 calls)
     davcio       :      0.00s CPU      0.00s WALL (     256 calls)

     Parallel routines

     PWSCF        :     0.58s CPU         0.73s WALL


   This run was terminated on:  17:34:37  30Sep2016            

=------------------------------------------------------------------------------=
   JOB DONE.
=------------------------------------------------------------------------------=
