 Entering Link 1 = C:\G03W\l1.exe PID=      3336.
  
 Copyright (c) 1988,1990,1992,1993,1995,1998,2003, Gaussian, Inc.
                  All Rights Reserved.
  
 This is the Gaussian(R) 03 program.  It is based on the
 the Gaussian(R) 98 system (copyright 1998, Gaussian, Inc.),
 the Gaussian(R) 94 system (copyright 1995, Gaussian, Inc.),
 the Gaussian 92(TM) system (copyright 1992, Gaussian, Inc.),
 the Gaussian 90(TM) system (copyright 1990, Gaussian, Inc.),
 the Gaussian 88(TM) system (copyright 1988, Gaussian, Inc.),
 the Gaussian 86(TM) system (copyright 1986, Carnegie Mellon
 University), and the Gaussian 82(TM) system (copyright 1983,
 Carnegie Mellon University). Gaussian is a federally registered
 trademark of Gaussian, Inc.
  
 This software contains proprietary and confidential information,
 including trade secrets, belonging to Gaussian, Inc.
  
 This software is provided under written license and may be
 used, copied, transmitted, or stored only in accord with that
 written license.
  
 The following legend is applicable only to US Government
 contracts under DFARS:
  
                    RESTRICTED RIGHTS LEGEND
  
 Use, duplication or disclosure by the US Government is subject
 to restrictions as set forth in subparagraph (c)(1)(ii) of the
 Rights in Technical Data and Computer Software clause at DFARS
 252.227-7013.
  
 Gaussian, Inc.
 Carnegie Office Park, Building 6, Pittsburgh, PA 15106 USA
  
 The following legend is applicable only to US Government
 contracts under FAR:
  
                    RESTRICTED RIGHTS LEGEND
  
 Use, reproduction and disclosure by the US Government is subject
 to restrictions as set forth in subparagraph (c) of the
 Commercial Computer Software - Restricted Rights clause at FAR
 52.227-19.
  
 Gaussian, Inc.
 Carnegie Office Park, Building 6, Pittsburgh, PA 15106 USA
  
  
 ---------------------------------------------------------------
 Warning -- This program may not be used in any manner that
 competes with the business of Gaussian, Inc. or will provide
 assistance to any competitor of Gaussian, Inc.  The licensee
 of this program is prohibited from giving any competitor of
 Gaussian, Inc. access to this program.  By using this program,
 the user acknowledges that Gaussian, Inc. is engaged in the
 business of creating and licensing software in the field of
 computational chemistry and represents and warrants to the
 licensee that it is not a competitor of Gaussian, Inc. and that
 it will not use this program in any manner prohibited above.
 ---------------------------------------------------------------
  

 Cite this work as:
 Gaussian 03, Revision B.03,
 M. J. Frisch, G. W. Trucks, H. B. Schlegel, G. E. Scuseria, 
 M. A. Robb, J. R. Cheeseman, J. A. Montgomery, Jr., T. Vreven, 
 K. N. Kudin, J. C. Burant, J. M. Millam, S. S. Iyengar, J. Tomasi, 
 V. Barone, B. Mennucci, M. Cossi, G. Scalmani, N. Rega, 
 G. A. Petersson, H. Nakatsuji, M. Hada, M. Ehara, K. Toyota, 
 R. Fukuda, J. Hasegawa, M. Ishida, T. Nakajima, Y. Honda, O. Kitao, 
 H. Nakai, M. Klene, X. Li, J. E. Knox, H. P. Hratchian, J. B. Cross, 
 C. Adamo, J. Jaramillo, R. Gomperts, R. E. Stratmann, O. Yazyev, 
 A. J. Austin, R. Cammi, C. Pomelli, J. W. Ochterski, P. Y. Ayala, 
 K. Morokuma, G. A. Voth, P. Salvador, J. J. Dannenberg, 
 V. G. Zakrzewski, S. Dapprich, A. D. Daniels, M. C. Strain, 
 O. Farkas, D. K. Malick, A. D. Rabuck, K. Raghavachari, 
 J. B. Foresman, J. V. Ortiz, Q. Cui, A. G. Baboul, S. Clifford, 
 J. Cioslowski, B. B. Stefanov, G. Liu, A. Liashenko, P. Piskorz, 
 I. Komaromi, R. L. Martin, D. J. Fox, T. Keith, M. A. Al-Laham, 
 C. Y. Peng, A. Nanayakkara, M. Challacombe, P. M. W. Gill, 
 B. Johnson, W. Chen, M. W. Wong, C. Gonzalez, and J. A. Pople, 
 Gaussian, Inc., Pittsburgh PA, 2003.
 
 *********************************************
 Gaussian 03:  x86-Win32-G03RevB.03 4-May-2003
                  14-Jun-2017 
 *********************************************
 %Chk=H2S-RHF-SINGLETE-OPT-GEOM-6-311G
 Default route:  MaxDisk=2000MB
 ------------------------------
 # rhf/6-311G pop=full opt freq
 ------------------------------
 1/18=20,38=1/1,3;
 2/9=110,17=6,18=5,40=1/2;
 3/5=4,6=6,11=1,16=1,25=1,30=1/1,2,3;
 4/7=1/1;
 5/5=2,38=5/2;
 6/7=3,28=1/1;
 7//1,2,3,16;
 1/18=20/3(1);
 99//99;
 2/9=110/2;
 3/5=4,6=6,11=1,16=1,25=1,30=1/1,2,3;
 4/5=5,7=1,16=3/1;
 5/5=2,38=5/2;
 7//1,2,3,16;
 1/18=20/3(-5);
 2/9=110/2;
 6/7=3,19=2,28=1/1;
 99/9=1/99;
 -------------------------------------------------
 Optimizacion geometria H2S Singlete RHF en 6-311G
 -------------------------------------------------
 Symbolic Z-matrix:
 Charge =  0 Multiplicity = 1
 S1                    0.        0.        0.10207 
 H1                    0.        0.95998  -0.81652 
 H2                    0.       -0.95998  -0.81652 
 

 GradGradGradGradGradGradGradGradGradGradGradGradGradGradGradGradGradGrad
 Berny optimization.
 Initialization pass.
                           ----------------------------
                           !    Initial Parameters    !
                           ! (Angstroms and Degrees)  !
 --------------------------                            --------------------------
 ! Name  Definition              Value          Derivative Info.                !
 --------------------------------------------------------------------------------
 ! R1    R(1,2)                  1.3287         estimate D2E/DX2                !
 ! R2    R(1,3)                  1.3287         estimate D2E/DX2                !
 ! A1    A(2,1,3)               92.5246         estimate D2E/DX2                !
 --------------------------------------------------------------------------------
 Trust Radius=3.00D-01 FncErr=1.00D-07 GrdErr=1.00D-07
 Number of steps in this run=  20 maximum allowed number of steps= 100.
 GradGradGradGradGradGradGradGradGradGradGradGradGradGradGradGradGradGrad

                          Input orientation:                          
 ---------------------------------------------------------------------
 Center     Atomic     Atomic              Coordinates (Angstroms)
 Number     Number      Type              X           Y           Z
 ---------------------------------------------------------------------
    1         16             0        0.000000    0.000000    0.102065
    2          1             0        0.000000    0.959977   -0.816518
    3          1             0        0.000000   -0.959977   -0.816518
 ---------------------------------------------------------------------
                    Distance matrix (angstroms):
                    1          2          3
     1  S    0.000000
     2  H    1.328665   0.000000
     3  H    1.328665   1.919954   0.000000
 Stoichiometry    H2S
 Framework group  C2V[C2(S),SGV(H2)]
 Deg. of freedom     2
 Full point group                 C2V     NOp   4
 Largest Abelian subgroup         C2V     NOp   4
 Largest concise Abelian subgroup C2      NOp   2
                         Standard orientation:                         
 ---------------------------------------------------------------------
 Center     Atomic     Atomic              Coordinates (Angstroms)
 Number     Number      Type              X           Y           Z
 ---------------------------------------------------------------------
    1         16             0        0.000000    0.000000    0.102065
    2          1             0        0.000000    0.959977   -0.816518
    3          1             0        0.000000   -0.959977   -0.816518
 ---------------------------------------------------------------------
 Rotational constants (GHZ):    315.8759247    272.0698404    146.1704761
 Standard basis: 6-311G (5D, 7F)
 There are    14 symmetry adapted basis functions of A1  symmetry.
 There are     0 symmetry adapted basis functions of A2  symmetry.
 There are     5 symmetry adapted basis functions of B1  symmetry.
 There are     8 symmetry adapted basis functions of B2  symmetry.
 Integral buffers will be    262144 words long.
 Raffenetti 1 integral format.
 Two-electron integral symmetry is turned on.
    27 basis functions,    50 primitive gaussians,    27 cartesian basis functions
     9 alpha electrons        9 beta electrons
       nuclear repulsion energy        13.0204961398 Hartrees.
 NAtoms=    3 NActive=    3 NUniq=    2 SFac= 2.76D+00 NAtFMM=   60 Big=F
 One-electron integrals computed using PRISM.
 NBasis=    27 RedAO= T  NBF=    14     0     5     8
 NBsUse=    27 1.00D-06 NBFU=    14     0     5     8
 Harris functional with IExCor=  205 diagonalized for initial guess.
 ExpMin= 7.71D-02 ExpMax= 9.34D+04 ExpMxC= 3.17D+03 IAcc=2 IRadAn=         4 AccDes= 0.00D+00
 HarFok:  IExCor= 205 AccDes= 0.00D+00 IRadAn=         4 IDoV=1
 ScaDFX=  1.000000  1.000000  1.000000  1.000000
 Initial guess orbital symmetries:
       Occupied  (A1) (A1) (B2) (A1) (B1) (A1) (B2) (A1) (B1)
       Virtual   (A1) (B2) (B2) (A1) (B1) (A1) (B2) (A1) (B1) (A1)
                 (B2) (A1) (B2) (A1) (B1) (B2) (A1) (A1)
 The electronic state of the initial guess is 1-A1.
 Requested convergence on RMS density matrix=1.00D-08 within 128 cycles.
 Requested convergence on MAX density matrix=1.00D-06.
 Requested convergence on             energy=1.00D-06.
 No special actions if energy rises.
 Keep R1 integrals in memory in canonical form, NReq=      502038.
 SCF Done:  E(RHF) =  -398.653965918     A.U. after   10 cycles
             Convg  =    0.1833D-08             -V/T =  1.9998
             S**2   =   0.0000

 **********************************************************************

            Population analysis using the SCF density.

 **********************************************************************

 Orbital symmetries:
       Occupied  (A1) (A1) (B2) (A1) (B1) (A1) (B2) (A1) (B1)
       Virtual   (A1) (B2) (B2) (A1) (B1) (A1) (B2) (A1) (B1) (B2)
                 (A1) (A1) (B2) (A1) (B1) (B2) (A1) (A1)
 The electronic state is 1-A1.
 Alpha  occ. eigenvalues --  -91.97664  -8.98302  -6.66511  -6.66347  -6.66045
 Alpha  occ. eigenvalues --   -1.00702  -0.59821  -0.49621  -0.39242
 Alpha virt. eigenvalues --    0.12520   0.15112   0.25288   0.26694   0.29582
 Alpha virt. eigenvalues --    0.45700   0.48531   0.78868   1.82887   1.83655
 Alpha virt. eigenvalues --    1.84468   2.44476   2.62159   8.24874  18.26857
 Alpha virt. eigenvalues --   18.29453  18.29699 192.09197
     Molecular Orbital Coefficients
                           1         2         3         4         5
                        (A1)--O   (A1)--O   (B2)--O   (A1)--O   (B1)--O
     EIGENVALUES --   -91.97664  -8.98302  -6.66511  -6.66347  -6.66045
   1 1   S  1S          0.41105  -0.11972   0.00000  -0.00188   0.00000
   2        2S          0.65498  -0.32482   0.00000  -0.00522   0.00000
   3        3S          0.01224   0.53280   0.00000   0.01023   0.00000
   4        4S         -0.00139   0.58668   0.00000   0.00727   0.00000
   5        5S          0.00043   0.03832   0.00000  -0.00161   0.00000
   6        6S         -0.00031  -0.01438   0.00000   0.00106   0.00000
   7        7PX         0.00000   0.00000   0.00000   0.00000   0.37625
   8        7PY         0.00000   0.00000   0.37501   0.00000   0.00000
   9        7PZ        -0.00017  -0.00424   0.00000   0.37540   0.00000
  10        8PX         0.00000   0.00000   0.00000   0.00000   0.71521
  11        8PY         0.00000   0.00000   0.71489   0.00000   0.00000
  12        8PZ         0.00005  -0.01069   0.00000   0.71489   0.00000
  13        9PX         0.00000   0.00000   0.00000   0.00000   0.04499
  14        9PY         0.00000   0.00000   0.04805   0.00000   0.00000
  15        9PZ        -0.00003  -0.00188   0.00000   0.04705   0.00000
  16       10PX         0.00000   0.00000   0.00000   0.00000  -0.00252
  17       10PY         0.00000   0.00000  -0.00384   0.00000   0.00000
  18       10PZ         0.00001   0.00004   0.00000  -0.00330   0.00000
  19       11PX         0.00000   0.00000   0.00000   0.00000   0.00077
  20       11PY         0.00000   0.00000   0.00151   0.00000   0.00000
  21       11PZ         0.00006   0.00283   0.00000   0.00070   0.00000
  22 2   H  1S          0.00000   0.00005   0.00012  -0.00022   0.00000
  23        2S         -0.00001  -0.00047   0.00107  -0.00061   0.00000
  24        3S          0.00009   0.00390  -0.00109   0.00001   0.00000
  25 3   H  1S          0.00000   0.00005  -0.00012  -0.00022   0.00000
  26        2S         -0.00001  -0.00047  -0.00107  -0.00061   0.00000
  27        3S          0.00009   0.00390   0.00109   0.00001   0.00000
                           6         7         8         9        10
                        (A1)--O   (B2)--O   (A1)--O   (B1)--O   (A1)--V
     EIGENVALUES --    -1.00702  -0.59821  -0.49621  -0.39242   0.12520
   1 1   S  1S          0.03046   0.00000   0.01407   0.00000   0.01253
   2        2S          0.08766   0.00000   0.04103   0.00000   0.03705
   3        3S         -0.18247   0.00000  -0.09052   0.00000  -0.08594
   4        4S         -0.34458   0.00000  -0.15504   0.00000  -0.12726
   5        5S          0.60395   0.00000   0.28569   0.00000   0.14130
   6        6S          0.40797   0.00000   0.37356   0.00000   1.55434
   7        7PX         0.00000   0.00000   0.00000  -0.09697   0.00000
   8        7PY         0.00000  -0.07416   0.00000   0.00000   0.00000
   9        7PZ         0.02026   0.00000  -0.08016   0.00000   0.03203
  10        8PX         0.00000   0.00000   0.00000  -0.19266   0.00000
  11        8PY         0.00000  -0.15142   0.00000   0.00000   0.00000
  12        8PZ         0.04336   0.00000  -0.16095   0.00000   0.06308
  13        9PX         0.00000   0.00000   0.00000   0.26464   0.00000
  14        9PY         0.00000   0.20703   0.00000   0.00000   0.00000
  15        9PZ        -0.05478   0.00000   0.21920   0.00000  -0.08008
  16       10PX         0.00000   0.00000   0.00000   0.62397   0.00000
  17       10PY         0.00000   0.37560   0.00000   0.00000   0.00000
  18       10PZ        -0.10072   0.00000   0.45360   0.00000  -0.29581
  19       11PX         0.00000   0.00000   0.00000   0.30028   0.00000
  20       11PY         0.00000   0.06421   0.00000   0.00000   0.00000
  21       11PZ        -0.01910   0.00000   0.14681   0.00000  -0.87020
  22 2   H  1S          0.08887   0.13323  -0.08550   0.00000  -0.04891
  23        2S          0.11503   0.29174  -0.18824   0.00000   0.02321
  24        3S         -0.01783   0.06571  -0.05929   0.00000  -1.32093
  25 3   H  1S          0.08887  -0.13323  -0.08550   0.00000  -0.04891
  26        2S          0.11503  -0.29174  -0.18824   0.00000   0.02321
  27        3S         -0.01783  -0.06571  -0.05929   0.00000  -1.32093
                          11        12        13        14        15
                        (B2)--V   (B2)--V   (A1)--V   (B1)--V   (A1)--V
     EIGENVALUES --     0.15112   0.25288   0.26694   0.29582   0.45700
   1 1   S  1S          0.00000   0.00000  -0.00354   0.00000  -0.00267
   2        2S          0.00000   0.00000  -0.01085   0.00000  -0.00803
   3        3S          0.00000   0.00000   0.02851   0.00000   0.01965
   4        4S          0.00000   0.00000   0.02505   0.00000   0.02284
   5        5S          0.00000   0.00000   0.03838   0.00000   0.13731
   6        6S          0.00000   0.00000  -0.54458   0.00000  -0.48193
   7        7PX         0.00000   0.00000   0.00000   0.06088   0.00000
   8        7PY         0.04461   0.04749   0.00000   0.00000   0.00000
   9        7PZ         0.00000   0.00000   0.04303   0.00000  -0.05942
  10        8PX         0.00000   0.00000   0.00000   0.10689   0.00000
  11        8PY         0.08800   0.08510   0.00000   0.00000   0.00000
  12        8PZ         0.00000   0.00000   0.07572   0.00000  -0.10704
  13        9PX         0.00000   0.00000   0.00000  -0.07913   0.00000
  14        9PY        -0.11528  -0.06599   0.00000   0.00000   0.00000
  15        9PZ         0.00000   0.00000  -0.05402   0.00000   0.08134
  16       10PX         0.00000   0.00000   0.00000  -0.89515   0.00000
  17       10PY        -0.36573  -0.65880   0.00000   0.00000   0.00000
  18       10PZ         0.00000   0.00000  -0.62279   0.00000   0.96619
  19       11PX         0.00000   0.00000   0.00000   1.23342   0.00000
  20       11PY        -1.47510   0.81108   0.00000   0.00000   0.00000
  21       11PZ         0.00000   0.00000   1.43719   0.00000  -0.27614
  22 2   H  1S          0.08475  -0.00470   0.01809   0.00000   0.07856
  23        2S          0.17241  -0.33509   0.32963   0.00000   1.19144
  24        3S          1.49427   0.64026   0.12809   0.00000  -0.67701
  25 3   H  1S         -0.08475   0.00470   0.01809   0.00000   0.07856
  26        2S         -0.17241   0.33509   0.32963   0.00000   1.19144
  27        3S         -1.49427  -0.64026   0.12809   0.00000  -0.67701
                          16        17        18        19        20
                        (B2)--V   (A1)--V   (B1)--V   (B2)--V   (A1)--V
     EIGENVALUES --     0.48531   0.78868   1.82887   1.83655   1.84468
   1 1   S  1S          0.00000  -0.03159   0.00000   0.00000  -0.00254
   2        2S          0.00000  -0.08680   0.00000   0.00000  -0.00706
   3        3S          0.00000   0.14427   0.00000   0.00000   0.01320
   4        4S          0.00000   0.59937   0.00000   0.00000   0.04748
   5        5S          0.00000  -2.50971   0.00000   0.00000  -0.15426
   6        6S          0.00000   3.62695   0.00000   0.00000   0.07100
   7        7PX         0.00000   0.00000  -0.16713   0.00000   0.00000
   8        7PY        -0.05966   0.00000   0.00000   0.16703   0.00000
   9        7PZ         0.00000  -0.01418   0.00000   0.00000   0.16659
  10        8PX         0.00000   0.00000  -0.42907   0.00000   0.00000
  11        8PY        -0.10777   0.00000   0.00000   0.43431   0.00000
  12        8PZ         0.00000  -0.03779   0.00000   0.00000   0.43128
  13        9PX         0.00000   0.00000   1.73633   0.00000   0.00000
  14        9PY         0.08286   0.00000   0.00000  -1.77933   0.00000
  15        9PZ         0.00000   0.12026   0.00000   0.00000  -1.76836
  16       10PX         0.00000   0.00000  -1.62680   0.00000   0.00000
  17       10PY         0.96443   0.00000   0.00000   1.82941   0.00000
  18       10PZ         0.00000  -0.08049   0.00000   0.00000   1.81875
  19       11PX         0.00000   0.00000   0.53052   0.00000   0.00000
  20       11PY        -1.70466   0.00000   0.00000  -0.76958   0.00000
  21       11PZ         0.00000  -0.90990   0.00000   0.00000  -0.56216
  22 2   H  1S         -0.06989   0.04499   0.00000   0.03656  -0.06791
  23        2S         -1.15273  -0.00513   0.00000  -0.38190   0.41490
  24        3S          2.31846  -1.20665   0.00000   0.44984  -0.22401
  25 3   H  1S          0.06989   0.04499   0.00000  -0.03656  -0.06791
  26        2S          1.15273  -0.00513   0.00000   0.38190   0.41490
  27        3S         -2.31846  -1.20665   0.00000  -0.44984  -0.22401
                          21        22        23        24        25
                        (A1)--V   (B2)--V   (A1)--V   (B1)--V   (B2)--V
     EIGENVALUES --     2.44476   2.62159   8.24874  18.26857  18.29453
   1 1   S  1S         -0.00004   0.00000   0.11235   0.00000   0.00000
   2        2S          0.00217   0.00000   0.45592   0.00000   0.00000
   3        3S         -0.02633   0.00000  -2.52567   0.00000   0.00000
   4        4S          0.09077   0.00000   2.89797   0.00000   0.00000
   5        5S         -0.31721   0.00000  -1.61213   0.00000   0.00000
   6        6S          0.11532   0.00000   1.14509   0.00000   0.00000
   7        7PX         0.00000   0.00000   0.00000  -1.21310   0.00000
   8        7PY         0.00000   0.00204   0.00000   0.00000  -1.21414
   9        7PZ        -0.00720   0.00000   0.00606   0.00000   0.00000
  10        8PX         0.00000   0.00000   0.00000   1.35804   0.00000
  11        8PY         0.00000   0.02368   0.00000   0.00000   1.36127
  12        8PZ        -0.03624   0.00000  -0.00161   0.00000   0.00000
  13        9PX         0.00000   0.00000   0.00000  -0.88208   0.00000
  14        9PY         0.00000  -0.13978   0.00000   0.00000  -0.89999
  15        9PZ         0.19847   0.00000  -0.01527   0.00000   0.00000
  16       10PX         0.00000   0.00000   0.00000   0.46385   0.00000
  17       10PY         0.00000  -0.16537   0.00000   0.00000   0.51237
  18       10PZ         0.05034   0.00000   0.04318   0.00000   0.00000
  19       11PX         0.00000   0.00000   0.00000  -0.13448   0.00000
  20       11PY         0.00000   0.36023   0.00000   0.00000  -0.18360
  21       11PZ         0.07794   0.00000  -0.25324   0.00000   0.00000
  22 2   H  1S         -1.10229  -1.13982   0.00658   0.00000  -0.00332
  23        2S          1.44694   1.57335   0.06561   0.00000  -0.06097
  24        3S         -0.55245  -1.10802  -0.34175   0.00000   0.08292
  25 3   H  1S         -1.10229   1.13982   0.00658   0.00000   0.00332
  26        2S          1.44694  -1.57335   0.06561   0.00000   0.06097
  27        3S         -0.55245   1.10802  -0.34175   0.00000  -0.08292
                          26        27
                        (A1)--V   (A1)--V
     EIGENVALUES --    18.29699 192.09197
   1 1   S  1S          0.00035  -1.53809
   2        2S          0.00183   1.87604
   3        3S         -0.01311  -1.34196
   4        4S          0.01940   0.87072
   5        5S         -0.00664  -0.35031
   6        6S         -0.02149   0.24536
   7        7PX         0.00000   0.00000
   8        7PY         0.00000   0.00000
   9        7PZ        -1.21397  -0.00034
  10        8PX         0.00000   0.00000
  11        8PY         0.00000   0.00000
  12        8PZ         1.36153   0.00095
  13        9PX         0.00000   0.00000
  14        9PY         0.00000   0.00000
  15        9PZ        -0.90029  -0.00355
  16       10PX         0.00000   0.00000
  17       10PY         0.00000   0.00000
  18       10PZ         0.51130   0.00952
  19       11PX         0.00000   0.00000
  20       11PY         0.00000   0.00000
  21       11PZ        -0.13603  -0.05519
  22 2   H  1S          0.00452  -0.00029
  23        2S          0.05923   0.01510
  24        3S         -0.02608  -0.07435
  25 3   H  1S          0.00452  -0.00029
  26        2S          0.05923   0.01510
  27        3S         -0.02608  -0.07435
      DENSITY MATRIX.
                           1         2         3         4         5
   1 1   S  1S          0.36886
   2        2S          0.62275   1.08780
   3        3S         -0.13122  -0.36963   0.65124
   4        4S         -0.16700  -0.45617   0.77910   0.97404
   5        5S          0.03602   0.10501  -0.23133  -0.45988   0.89570
   6        6S          0.03855   0.11110  -0.23182  -0.41385   0.70512
   7        7PX         0.00000   0.00000   0.00000   0.00000   0.00000
   8        7PY         0.00000   0.00000   0.00000   0.00000   0.00000
   9        7PZ        -0.00156  -0.00441   0.01028   0.01138  -0.02286
  10        8PX         0.00000   0.00000   0.00000   0.00000   0.00000
  11        8PY         0.00000   0.00000   0.00000   0.00000   0.00000
  12        8PZ        -0.00198  -0.00606   0.01655   0.01787  -0.04270
  13        9PX         0.00000   0.00000   0.00000   0.00000   0.00000
  14        9PY         0.00000   0.00000   0.00000   0.00000   0.00000
  15        9PZ         0.00308   0.00908  -0.02074  -0.03174   0.05878
  16       10PX         0.00000   0.00000   0.00000   0.00000   0.00000
  17       10PY         0.00000   0.00000   0.00000   0.00000   0.00000
  18       10PZ         0.00663   0.01958  -0.04538  -0.07124   0.13754
  19       11PX         0.00000   0.00000   0.00000   0.00000   0.00000
  20       11PY         0.00000   0.00000   0.00000   0.00000   0.00000
  21       11PZ         0.00234   0.00694  -0.01658  -0.02903   0.06103
  22 2   H  1S          0.00299   0.00853  -0.01690  -0.03467   0.05849
  23        2S          0.00182   0.00502  -0.00842  -0.02147   0.03136
  24        3S         -0.00361  -0.01041   0.02140   0.03525  -0.05511
  25 3   H  1S          0.00299   0.00853  -0.01690  -0.03467   0.05849
  26        2S          0.00182   0.00502  -0.00842  -0.02147   0.03136
  27        3S         -0.00361  -0.01041   0.02140   0.03525  -0.05511
                           6         7         8         9        10
   6        6S          0.61238
   7        7PX         0.00000   0.30194
   8        7PY         0.00000   0.00000   0.29227
   9        7PZ        -0.04244   0.00000   0.00000   0.29555
  10        8PX         0.00000   0.57557   0.00000   0.00000   1.09729
  11        8PY         0.00000   0.00000   0.55864   0.00000   0.00000
  12        8PZ        -0.08304   0.00000   0.00000   0.56438   0.00000
  13        9PX         0.00000  -0.01747   0.00000   0.00000  -0.03762
  14        9PY         0.00000   0.00000   0.00533   0.00000   0.00000
  15        9PZ         0.11922   0.00000   0.00000  -0.00202   0.00000
  16       10PX         0.00000  -0.12291   0.00000   0.00000  -0.24403
  17       10PY         0.00000   0.00000  -0.05858   0.00000   0.00000
  18       10PZ         0.25670   0.00000   0.00000  -0.07928   0.00000
  19       11PX         0.00000  -0.05765   0.00000   0.00000  -0.11460
  20       11PY         0.00000   0.00000  -0.00839   0.00000   0.00000
  21       11PZ         0.09402   0.00000   0.00000  -0.02381   0.00000
  22 2   H  1S          0.00863   0.00000  -0.01967   0.01714   0.00000
  23        2S         -0.04676   0.00000  -0.04247   0.03439   0.00000
  24        3S         -0.05895   0.00000  -0.01056   0.00876   0.00000
  25 3   H  1S          0.00863   0.00000   0.01967   0.01714   0.00000
  26        2S         -0.04676   0.00000   0.04247   0.03439   0.00000
  27        3S         -0.05895   0.00000   0.01056   0.00876   0.00000
                          11        12        13        14        15
  11        8PY         1.06800
  12        8PZ         0.00000   1.07792
  13        9PX         0.00000   0.00000   0.14411
  14        9PY         0.00600   0.00000   0.00000   0.09034
  15        9PZ         0.00000  -0.00799   0.00000   0.00000   0.10653
  16       10PX         0.00000   0.00000   0.33002   0.00000   0.00000
  17       10PY        -0.11923   0.00000   0.00000   0.15516   0.00000
  18       10PZ         0.00000  -0.15947   0.00000   0.00000   0.20957
  19       11PX         0.00000   0.00000   0.15900   0.00000   0.00000
  20       11PY        -0.01728   0.00000   0.00000   0.02673   0.00000
  21       11PZ         0.00000  -0.04797   0.00000   0.00000   0.06651
  22 2   H  1S         -0.04017   0.03492   0.00000   0.05518  -0.04724
  23        2S         -0.08683   0.06971   0.00000   0.12090  -0.09518
  24        3S         -0.02145   0.01747   0.00000   0.02711  -0.02405
  25 3   H  1S          0.04017   0.03492   0.00000  -0.05518  -0.04724
  26        2S          0.08683   0.06971   0.00000  -0.12090  -0.09518
  27        3S          0.02145   0.01747   0.00000  -0.02711  -0.02405
                          16        17        18        19        20
  16       10PX         0.77869
  17       10PY         0.00000   0.28218
  18       10PZ         0.00000   0.00000   0.43181
  19       11PX         0.37473   0.00000   0.00000   0.18034
  20       11PY         0.00000   0.04822   0.00000   0.00000   0.00825
  21       11PZ         0.00000   0.00000   0.13702   0.00000   0.00000
  22 2   H  1S          0.00000   0.10008  -0.09546   0.00000   0.01711
  23        2S          0.00000   0.21915  -0.19393   0.00000   0.03747
  24        3S          0.00000   0.04937  -0.05020   0.00000   0.00844
  25 3   H  1S          0.00000  -0.10008  -0.09546   0.00000  -0.01711
  26        2S          0.00000  -0.21915  -0.19393   0.00000  -0.03747
  27        3S          0.00000  -0.04937  -0.05020   0.00000  -0.00844
                          21        22        23        24        25
  21       11PZ         0.04385
  22 2   H  1S         -0.02850   0.06592
  23        2S         -0.05967   0.13037   0.26756
  24        3S         -0.01671   0.02448   0.05656   0.01634
  25 3   H  1S         -0.02850  -0.00509  -0.02510  -0.01054   0.06592
  26        2S         -0.05967  -0.02510  -0.07290  -0.02012   0.13037
  27        3S         -0.01671  -0.01054  -0.02012  -0.00094   0.02448
                          26        27
  26        2S          0.26756
  27        3S          0.05656   0.01634
    Full Mulliken population analysis:
                           1         2         3         4         5
   1 1   S  1S          0.36886
   2        2S          0.45230   1.08780
   3        3S         -0.02918  -0.21378   0.65124
   4        4S         -0.01879  -0.15012   0.65987   0.97404
   5        5S          0.00122   0.01116  -0.08457  -0.29385   0.89570
   6        6S          0.00056   0.00514  -0.03912  -0.13545   0.56193
   7        7PX         0.00000   0.00000   0.00000   0.00000   0.00000
   8        7PY         0.00000   0.00000   0.00000   0.00000   0.00000
   9        7PZ         0.00000   0.00000   0.00000   0.00000   0.00000
  10        8PX         0.00000   0.00000   0.00000   0.00000   0.00000
  11        8PY         0.00000   0.00000   0.00000   0.00000   0.00000
  12        8PZ         0.00000   0.00000   0.00000   0.00000   0.00000
  13        9PX         0.00000   0.00000   0.00000   0.00000   0.00000
  14        9PY         0.00000   0.00000   0.00000   0.00000   0.00000
  15        9PZ         0.00000   0.00000   0.00000   0.00000   0.00000
  16       10PX         0.00000   0.00000   0.00000   0.00000   0.00000
  17       10PY         0.00000   0.00000   0.00000   0.00000   0.00000
  18       10PZ         0.00000   0.00000   0.00000   0.00000   0.00000
  19       11PX         0.00000   0.00000   0.00000   0.00000   0.00000
  20       11PY         0.00000   0.00000   0.00000   0.00000   0.00000
  21       11PZ         0.00000   0.00000   0.00000   0.00000   0.00000
  22 2   H  1S          0.00000   0.00000  -0.00002  -0.00024   0.00631
  23        2S          0.00001   0.00006  -0.00037  -0.00202   0.00974
  24        3S         -0.00002  -0.00021   0.00156   0.00515  -0.02319
  25 3   H  1S          0.00000   0.00000  -0.00002  -0.00024   0.00631
  26        2S          0.00001   0.00006  -0.00037  -0.00202   0.00974
  27        3S         -0.00002  -0.00021   0.00156   0.00515  -0.02319
                           6         7         8         9        10
   6        6S          0.61238
   7        7PX         0.00000   0.30194
   8        7PY         0.00000   0.00000   0.29227
   9        7PZ         0.00000   0.00000   0.00000   0.29555
  10        8PX         0.00000   0.32810   0.00000   0.00000   1.09729
  11        8PY         0.00000   0.00000   0.31845   0.00000   0.00000
  12        8PZ         0.00000   0.00000   0.00000   0.32172   0.00000
  13        9PX         0.00000  -0.00203   0.00000   0.00000  -0.02049
  14        9PY         0.00000   0.00000   0.00062   0.00000   0.00000
  15        9PZ         0.00000   0.00000   0.00000  -0.00023   0.00000
  16       10PX         0.00000  -0.00408   0.00000   0.00000  -0.05096
  17       10PY         0.00000   0.00000  -0.00194   0.00000   0.00000
  18       10PZ         0.00000   0.00000   0.00000  -0.00263   0.00000
  19       11PX         0.00000  -0.00040   0.00000   0.00000  -0.00570
  20       11PY         0.00000   0.00000  -0.00006   0.00000   0.00000
  21       11PZ         0.00000   0.00000   0.00000  -0.00016   0.00000
  22 2   H  1S          0.00177   0.00000  -0.00001  -0.00001   0.00000
  23        2S         -0.02223   0.00000  -0.00024  -0.00018   0.00000
  24        3S         -0.04017   0.00000  -0.00003  -0.00003   0.00000
  25 3   H  1S          0.00177   0.00000  -0.00001  -0.00001   0.00000
  26        2S         -0.02223   0.00000  -0.00024  -0.00018   0.00000
  27        3S         -0.04017   0.00000  -0.00003  -0.00003   0.00000
                          11        12        13        14        15
  11        8PY         1.06800
  12        8PZ         0.00000   1.07792
  13        9PX         0.00000   0.00000   0.14411
  14        9PY         0.00327   0.00000   0.00000   0.09034
  15        9PZ         0.00000  -0.00435   0.00000   0.00000   0.10653
  16       10PX         0.00000   0.00000   0.23461   0.00000   0.00000
  17       10PY        -0.02490   0.00000   0.00000   0.11030   0.00000
  18       10PZ         0.00000  -0.03330   0.00000   0.00000   0.14899
  19       11PX         0.00000   0.00000   0.03800   0.00000   0.00000
  20       11PY        -0.00086   0.00000   0.00000   0.00639   0.00000
  21       11PZ         0.00000  -0.00239   0.00000   0.00000   0.01590
  22 2   H  1S         -0.00025  -0.00021   0.00000   0.00460   0.00377
  23        2S         -0.00349  -0.00268   0.00000   0.02257   0.01700
  24        3S         -0.00047  -0.00036   0.00000   0.00283   0.00240
  25 3   H  1S         -0.00025  -0.00021   0.00000   0.00460   0.00377
  26        2S         -0.00349  -0.00268   0.00000   0.02257   0.01700
  27        3S         -0.00047  -0.00036   0.00000   0.00283   0.00240
                          16        17        18        19        20
  16       10PX         0.77869
  17       10PY         0.00000   0.28218
  18       10PZ         0.00000   0.00000   0.43181
  19       11PX         0.23176   0.00000   0.00000   0.18034
  20       11PY         0.00000   0.02982   0.00000   0.00000   0.00825
  21       11PZ         0.00000   0.00000   0.08475   0.00000   0.00000
  22 2   H  1S          0.00000   0.02450   0.02236   0.00000   0.00319
  23        2S          0.00000   0.08752   0.07411   0.00000   0.01438
  24        3S          0.00000   0.01330   0.01294   0.00000   0.00362
  25 3   H  1S          0.00000   0.02450   0.02236   0.00000   0.00319
  26        2S          0.00000   0.08752   0.07411   0.00000   0.01438
  27        3S          0.00000   0.01330   0.01294   0.00000   0.00362
                          21        22        23        24        25
  21       11PZ         0.04385
  22 2   H  1S          0.00508   0.06592
  23        2S          0.02191   0.09209   0.26756
  24        3S          0.00686   0.00915   0.04462   0.01634
  25 3   H  1S          0.00508   0.00000  -0.00060  -0.00113   0.06592
  26        2S          0.02191  -0.00060  -0.00854  -0.00568   0.09209
  27        3S          0.00686  -0.00113  -0.00568  -0.00048   0.00915
                          26        27
  26        2S          0.26756
  27        3S          0.04462   0.01634
     Gross orbital populations:
                           1
   1 1   S  1S          0.77495
   2        2S          1.19222
   3        3S          0.94681
   4        4S          1.04148
   5        5S          1.07731
   6        6S          0.88420
   7        7PX         0.62353
   8        7PY         0.60878
   9        7PZ         0.61381
  10        8PX         1.34824
  11        8PY         1.35553
  12        8PZ         1.35309
  13        9PX         0.39421
  14        9PY         0.27091
  15        9PZ         0.31316
  16       10PX         1.19002
  17       10PY         0.64611
  18       10PZ         0.84844
  19       11PX         0.44400
  20       11PY         0.08592
  21       11PZ         0.20965
  22 2   H  1S          0.23625
  23        2S          0.60555
  24        3S          0.04702
  25 3   H  1S          0.23625
  26        2S          0.60555
  27        3S          0.04702
          Condensed to atoms (all electrons):
              1          2          3
     1  S   15.680158   0.271106   0.271106
     2  H    0.271106   0.641534  -0.023824
     3  H    0.271106  -0.023824   0.641534
 Mulliken atomic charges:
              1
     1  S   -0.222369
     2  H    0.111185
     3  H    0.111185
 Sum of Mulliken charges=   0.00000
 Atomic charges with hydrogens summed into heavy atoms:
              1
     1  S    0.000000
     2  H    0.000000
     3  H    0.000000
 Sum of Mulliken charges=   0.00000
 Electronic spatial extent (au):  <R**2>=    44.6535
 Charge=     0.0000 electrons
 Dipole moment (field-independent basis, Debye):
    X=     0.0000    Y=     0.0000    Z=    -1.8770  Tot=     1.8770
 Quadrupole moment (field-independent basis, Debye-Ang):
   XX=   -17.0976   YY=   -12.6522   ZZ=   -14.2525
   XY=     0.0000   XZ=     0.0000   YZ=     0.0000
 Traceless Quadrupole moment (field-independent basis, Debye-Ang):
   XX=    -2.4302   YY=     2.0152   ZZ=     0.4149
   XY=     0.0000   XZ=     0.0000   YZ=     0.0000
 Octapole moment (field-independent basis, Debye-Ang**2):
  XXX=     0.0000  YYY=     0.0000  ZZZ=    -1.9314  XYY=     0.0000
  XXY=     0.0000  XXZ=    -0.7847  XZZ=     0.0000  YZZ=     0.0000
  YYZ=    -0.8643  XYZ=     0.0000
 Hexadecapole moment (field-independent basis, Debye-Ang**3):
 XXXX=   -27.1893 YYYY=   -23.0077 ZZZZ=   -25.9662 XXXY=     0.0000
 XXXZ=     0.0000 YYYX=     0.0000 YYYZ=     0.0000 ZZZX=     0.0000
 ZZZY=     0.0000 XXYY=    -8.5545 XXZZ=    -9.0110 YYZZ=    -7.6020
 XXYZ=     0.0000 YYXZ=     0.0000 ZZXY=     0.0000
 N-N= 1.302049613981D+01 E-N=-9.752030641629D+02  KE= 3.987392398128D+02
 Symmetry A1   KE= 3.223913048156D+02
 Symmetry A2   KE= 0.000000000000D+00
 Symmetry B1   KE= 3.863155142017D+01
 Symmetry B2   KE= 3.771638357698D+01
 Orbital energies and kinetic energies (alpha):
                           1         2
       1  (A1)--O     -91.97664 121.16501
       2  (A1)--O      -8.98302  18.70819
       3  (B2)--O      -6.66511  17.56129
       4  (A1)--O      -6.66347  17.58293
       5  (B1)--O      -6.66045  17.62396
       6  (A1)--O      -1.00702   2.04169
       7  (B2)--O      -0.59821   1.29691
       8  (A1)--O      -0.49621   1.69783
       9  (B1)--O      -0.39242   1.69181
      10  (A1)--V       0.12520   0.72382
      11  (B2)--V       0.15112   0.69728
      12  (B2)--V       0.25288   0.66640
      13  (A1)--V       0.26694   0.63128
      14  (B1)--V       0.29582   0.88113
      15  (A1)--V       0.45700   1.41105
      16  (B2)--V       0.48531   1.33380
      17  (A1)--V       0.78868   2.85058
      18  (B1)--V       1.82887   5.83716
      19  (B2)--V       1.83655   5.90800
      20  (A1)--V       1.84468   5.88694
      21  (A1)--V       2.44476   3.83991
      22  (B2)--V       2.62159   4.02822
      23  (A1)--V       8.24874  30.33798
      24  (B1)--V      18.26857  55.80642
      25  (B2)--V      18.29453  55.88196
      26  (A1)--V      18.29699  55.86635
      27  (A1)--V     192.09197 486.99189
 Total kinetic energy from orbitals= 3.987392398128D+02
 ***** Axes restored to original set *****
 -------------------------------------------------------------------
 Center     Atomic                   Forces (Hartrees/Bohr)
 Number     Number              X              Y              Z
 -------------------------------------------------------------------
    1         16           0.000000000    0.000000000    0.017897383
    2          1           0.000000000    0.017183959   -0.008948691
    3          1           0.000000000   -0.017183959   -0.008948691
 -------------------------------------------------------------------
 Cartesian Forces:  Max     0.017897383 RMS     0.010908974

 GradGradGradGradGradGradGradGradGradGradGradGradGradGradGradGradGradGrad
 Berny optimization.
 Internal  Forces:  Max     0.018602373 RMS     0.017097079
 Search for a local minimum.
 Step number   1 out of a maximum of  20
 All quantities printed in internal units (Hartrees-Bohrs-Radians)
 Second derivative matrix not updated -- first step.
 The second derivative matrix:
                          R1        R2        A1
           R1           0.27350
           R2           0.00000   0.27350
           A1           0.00000   0.00000   0.16000
     Eigenvalues ---    0.16000   0.27350   0.27350
 RFO step:  Lambda=-3.62697927D-03.
 Linear search not attempted -- first point.
 Iteration  1 RMS(Cart)=  0.09872202 RMS(Int)=  0.00206525
 Iteration  2 RMS(Cart)=  0.00199586 RMS(Int)=  0.00000224
 Iteration  3 RMS(Cart)=  0.00000270 RMS(Int)=  0.00000000
 Iteration  4 RMS(Cart)=  0.00000000 RMS(Int)=  0.00000000
 Variable       Old X    -DE/DX   Delta X   Delta X   Delta X     New X
                                 (Linear)    (Quad)   (Total)
    R1        2.51081   0.01860   0.00000   0.06713   0.06713   2.57794
    R2        2.51081   0.01860   0.00000   0.06713   0.06713   2.57794
    A1        1.61486   0.01360   0.00000   0.08309   0.08309   1.69795
         Item               Value     Threshold  Converged?
 Maximum Force            0.018602     0.000450     NO 
 RMS     Force            0.017097     0.000300     NO 
 Maximum Displacement     0.120913     0.001800     NO 
 RMS     Displacement     0.099906     0.001200     NO 
 Predicted change in Energy=-1.842352D-03
 GradGradGradGradGradGradGradGradGradGradGradGradGradGradGradGradGradGrad

                          Input orientation:                          
 ---------------------------------------------------------------------
 Center     Atomic     Atomic              Coordinates (Angstroms)
 Number     Number      Type              X           Y           Z
 ---------------------------------------------------------------------
    1         16             0        0.000000    0.000000    0.090604
    2          1             0        0.000000    1.023961   -0.810788
    3          1             0        0.000000   -1.023961   -0.810788
 ---------------------------------------------------------------------
                    Distance matrix (angstroms):
                    1          2          3
     1  S    0.000000
     2  H    1.364186   0.000000
     3  H    1.364186   2.047923   0.000000
 Stoichiometry    H2S
 Framework group  C2V[C2(S),SGV(H2)]
 Deg. of freedom     2
 Full point group                 C2V     NOp   4
 Largest Abelian subgroup         C2V     NOp   4
 Largest concise Abelian subgroup C2      NOp   2
                         Standard orientation:                         
 ---------------------------------------------------------------------
 Center     Atomic     Atomic              Coordinates (Angstroms)
 Number     Number      Type              X           Y           Z
 ---------------------------------------------------------------------
    1         16             0        0.000000    0.000000    0.100155
    2          1             0        0.000000    1.023961   -0.801237
    3          1             0        0.000000   -1.023961   -0.801237
 ---------------------------------------------------------------------
 Rotational constants (GHZ):    328.0396603    239.1304718    138.3081977
 Standard basis: 6-311G (5D, 7F)
 There are    14 symmetry adapted basis functions of A1  symmetry.
 There are     0 symmetry adapted basis functions of A2  symmetry.
 There are     5 symmetry adapted basis functions of B1  symmetry.
 There are     8 symmetry adapted basis functions of B2  symmetry.
 Integral buffers will be    262144 words long.
 Raffenetti 1 integral format.
 Two-electron integral symmetry is turned on.
    27 basis functions,    50 primitive gaussians,    27 cartesian basis functions
     9 alpha electrons        9 beta electrons
       nuclear repulsion energy        12.6714183408 Hartrees.
 NAtoms=    3 NActive=    3 NUniq=    2 SFac= 2.76D+00 NAtFMM=   60 Big=F
 One-electron integrals computed using PRISM.
 NBasis=    27 RedAO= T  NBF=    14     0     5     8
 NBsUse=    27 1.00D-06 NBFU=    14     0     5     8
 Initial guess read from the read-write file:
 Initial guess orbital symmetries:
       Occupied  (A1) (A1) (B2) (A1) (B1) (A1) (B2) (A1) (B1)
       Virtual   (A1) (B2) (B2) (A1) (B1) (A1) (B2) (A1) (B1) (B2)
                 (A1) (A1) (B2) (A1) (B1) (B2) (A1) (A1)
 Harris functional with IExCor=  205 diagonalized for initial guess.
 ExpMin= 7.71D-02 ExpMax= 9.34D+04 ExpMxC= 3.17D+03 IAcc=2 IRadAn=         4 AccDes= 0.00D+00
 HarFok:  IExCor= 205 AccDes= 0.00D+00 IRadAn=         4 IDoV=1
 ScaDFX=  1.000000  1.000000  1.000000  1.000000
 Requested convergence on RMS density matrix=1.00D-08 within 128 cycles.
 Requested convergence on MAX density matrix=1.00D-06.
 Requested convergence on             energy=1.00D-06.
 No special actions if energy rises.
 Keep R1 integrals in memory in canonical form, NReq=      502038.
 SCF Done:  E(RHF) =  -398.655404795     A.U. after    9 cycles
             Convg  =    0.1045D-08             -V/T =  2.0000
             S**2   =   0.0000
 ***** Axes restored to original set *****
 -------------------------------------------------------------------
 Center     Atomic                   Forces (Hartrees/Bohr)
 Number     Number              X              Y              Z
 -------------------------------------------------------------------
    1         16           0.000000000    0.000000000    0.001576342
    2          1           0.000000000   -0.002412290   -0.000788171
    3          1           0.000000000    0.002412290   -0.000788171
 -------------------------------------------------------------------
 Cartesian Forces:  Max     0.002412290 RMS     0.001306631

 GradGradGradGradGradGradGradGradGradGradGradGradGradGradGradGradGradGrad
 Berny optimization.
 Internal  Forces:  Max     0.005634170 RMS     0.003419136
 Search for a local minimum.
 Step number   2 out of a maximum of  20
 All quantities printed in internal units (Hartrees-Bohrs-Radians)
 Update second derivatives using D2CorX and points  1  2
 Trust test= 7.81D-01 RLast= 1.26D-01 DXMaxT set to 3.78D-01
 The second derivative matrix:
                          R1        R2        A1
           R1           0.27178
           R2          -0.00172   0.27178
           A1           0.02124   0.02124   0.19712
     Eigenvalues ---    0.18634   0.27350   0.28083
 RFO step:  Lambda=-6.97187462D-05.
 Quartic linear search produced a step of -0.16037.
 Iteration  1 RMS(Cart)=  0.02530305 RMS(Int)=  0.00022298
 Iteration  2 RMS(Cart)=  0.00017344 RMS(Int)=  0.00000000
 Iteration  3 RMS(Cart)=  0.00000000 RMS(Int)=  0.00000000
 Variable       Old X    -DE/DX   Delta X   Delta X   Delta X     New X
                                 (Linear)    (Quad)   (Total)
    R1        2.57794  -0.00129  -0.01077   0.00760  -0.00317   2.57477
    R2        2.57794  -0.00129  -0.01077   0.00760  -0.00317   2.57477
    A1        1.69795  -0.00563  -0.01333  -0.01571  -0.02904   1.66891
         Item               Value     Threshold  Converged?
 Maximum Force            0.005634     0.000450     NO 
 RMS     Force            0.003419     0.000300     NO 
 Maximum Displacement     0.027284     0.001800     NO 
 RMS     Displacement     0.025378     0.001200     NO 
 Predicted change in Energy=-8.205312D-05
 GradGradGradGradGradGradGradGradGradGradGradGradGradGradGradGradGradGrad

                          Input orientation:                          
 ---------------------------------------------------------------------
 Center     Atomic     Atomic              Coordinates (Angstroms)
 Number     Number      Type              X           Y           Z
 ---------------------------------------------------------------------
    1         16             0        0.000000    0.000000    0.099701
    2          1             0        0.000000    1.009523   -0.815336
    3          1             0        0.000000   -1.009523   -0.815336
 ---------------------------------------------------------------------
                    Distance matrix (angstroms):
                    1          2          3
     1  S    0.000000
     2  H    1.362509   0.000000
     3  H    1.362509   2.019047   0.000000
 Stoichiometry    H2S
 Framework group  C2V[C2(S),SGV(H2)]
 Deg. of freedom     2
 Full point group                 C2V     NOp   4
 Largest Abelian subgroup         C2V     NOp   4
 Largest concise Abelian subgroup C2      NOp   2
                         Standard orientation:                         
 ---------------------------------------------------------------------
 Center     Atomic     Atomic              Coordinates (Angstroms)
 Number     Number      Type              X           Y           Z
 ---------------------------------------------------------------------
    1         16             0        0.000000    0.000000    0.101671
    2          1             0        0.000000    1.009523   -0.813366
    3          1             0        0.000000   -1.009523   -0.813366
 ---------------------------------------------------------------------
 Rotational constants (GHZ):    318.3288947    246.0193178    138.7708081
 Standard basis: 6-311G (5D, 7F)
 There are    14 symmetry adapted basis functions of A1  symmetry.
 There are     0 symmetry adapted basis functions of A2  symmetry.
 There are     5 symmetry adapted basis functions of B1  symmetry.
 There are     8 symmetry adapted basis functions of B2  symmetry.
 Integral buffers will be    262144 words long.
 Raffenetti 1 integral format.
 Two-electron integral symmetry is turned on.
    27 basis functions,    50 primitive gaussians,    27 cartesian basis functions
     9 alpha electrons        9 beta electrons
       nuclear repulsion energy        12.6903942321 Hartrees.
 NAtoms=    3 NActive=    3 NUniq=    2 SFac= 2.76D+00 NAtFMM=   60 Big=F
 One-electron integrals computed using PRISM.
 NBasis=    27 RedAO= T  NBF=    14     0     5     8
 NBsUse=    27 1.00D-06 NBFU=    14     0     5     8
 Initial guess read from the read-write file:
 Initial guess orbital symmetries:
       Occupied  (A1) (A1) (B2) (A1) (B1) (A1) (B2) (A1) (B1)
       Virtual   (A1) (B2) (B2) (A1) (B1) (A1) (B2) (A1) (B1) (A1)
                 (B2) (A1) (B2) (A1) (B1) (A1) (B2) (A1)
 Harris functional with IExCor=  205 diagonalized for initial guess.
 ExpMin= 7.71D-02 ExpMax= 9.34D+04 ExpMxC= 3.17D+03 IAcc=2 IRadAn=         4 AccDes= 0.00D+00
 HarFok:  IExCor= 205 AccDes= 0.00D+00 IRadAn=         4 IDoV=1
 ScaDFX=  1.000000  1.000000  1.000000  1.000000
 Requested convergence on RMS density matrix=1.00D-08 within 128 cycles.
 Requested convergence on MAX density matrix=1.00D-06.
 Requested convergence on             energy=1.00D-06.
 No special actions if energy rises.
 Keep R1 integrals in memory in canonical form, NReq=      502038.
 SCF Done:  E(RHF) =  -398.655485460     A.U. after    8 cycles
             Convg  =    0.1982D-08             -V/T =  2.0000
             S**2   =   0.0000
 ***** Axes restored to original set *****
 -------------------------------------------------------------------
 Center     Atomic                   Forces (Hartrees/Bohr)
 Number     Number              X              Y              Z
 -------------------------------------------------------------------
    1         16           0.000000000    0.000000000   -0.000458396
    2          1           0.000000000   -0.000013358    0.000229198
    3          1           0.000000000    0.000013358    0.000229198
 -------------------------------------------------------------------
 Cartesian Forces:  Max     0.000458396 RMS     0.000187245

 GradGradGradGradGradGradGradGradGradGradGradGradGradGradGradGradGradGrad
 Berny optimization.
 Internal  Forces:  Max     0.000414148 RMS     0.000273980
 Search for a local minimum.
 Step number   3 out of a maximum of  20
 All quantities printed in internal units (Hartrees-Bohrs-Radians)
 Update second derivatives using D2CorX and points  1  2  3
 Trust test= 9.83D-01 RLast= 2.94D-02 DXMaxT set to 3.78D-01
 The second derivative matrix:
                          R1        R2        A1
           R1           0.26938
           R2          -0.00413   0.26938
           A1           0.00983   0.00983   0.20614
     Eigenvalues ---    0.20304   0.26836   0.27350
 RFO step:  Lambda=-4.25636403D-07.
 Quartic linear search produced a step of -0.05963.
 Iteration  1 RMS(Cart)=  0.00154418 RMS(Int)=  0.00000116
 Iteration  2 RMS(Cart)=  0.00000123 RMS(Int)=  0.00000000
 Iteration  3 RMS(Cart)=  0.00000000 RMS(Int)=  0.00000000
 Variable       Old X    -DE/DX   Delta X   Delta X   Delta X     New X
                                 (Linear)    (Quad)   (Total)
    R1        2.57477  -0.00016   0.00019  -0.00088  -0.00070   2.57407
    R2        2.57477  -0.00016   0.00019  -0.00088  -0.00070   2.57407
    A1        1.66891   0.00041   0.00173   0.00033   0.00206   1.67097
         Item               Value     Threshold  Converged?
 Maximum Force            0.000414     0.000450     YES
 RMS     Force            0.000274     0.000300     YES
 Maximum Displacement     0.001622     0.001800     YES
 RMS     Displacement     0.001543     0.001200     NO 
 Predicted change in Energy=-5.434882D-07
 GradGradGradGradGradGradGradGradGradGradGradGradGradGradGradGradGradGrad

                          Input orientation:                          
 ---------------------------------------------------------------------
 Center     Atomic     Atomic              Coordinates (Angstroms)
 Number     Number      Type              X           Y           Z
 ---------------------------------------------------------------------
    1         16             0        0.000000    0.000000    0.098843
    2          1             0        0.000000    1.010193   -0.814907
    3          1             0        0.000000   -1.010193   -0.814907
 ---------------------------------------------------------------------
                    Distance matrix (angstroms):
                    1          2          3
     1  S    0.000000
     2  H    1.362141   0.000000
     3  H    1.362141   2.020386   0.000000
 Stoichiometry    H2S
 Framework group  C2V[C2(S),SGV(H2)]
 Deg. of freedom     2
 Full point group                 C2V     NOp   4
 Largest Abelian subgroup         C2V     NOp   4
 Largest concise Abelian subgroup C2      NOp   2
                         Standard orientation:                         
 ---------------------------------------------------------------------
 Center     Atomic     Atomic              Coordinates (Angstroms)
 Number     Number      Type              X           Y           Z
 ---------------------------------------------------------------------
    1         16             0        0.000000    0.000000    0.101528
    2          1             0        0.000000    1.010193   -0.812222
    3          1             0        0.000000   -1.010193   -0.812222
 ---------------------------------------------------------------------
 Rotational constants (GHZ):    319.2265634    245.6933437    138.8371002
 Standard basis: 6-311G (5D, 7F)
 There are    14 symmetry adapted basis functions of A1  symmetry.
 There are     0 symmetry adapted basis functions of A2  symmetry.
 There are     5 symmetry adapted basis functions of B1  symmetry.
 There are     8 symmetry adapted basis functions of B2  symmetry.
 Integral buffers will be    262144 words long.
 Raffenetti 1 integral format.
 Two-electron integral symmetry is turned on.
    27 basis functions,    50 primitive gaussians,    27 cartesian basis functions
     9 alpha electrons        9 beta electrons
       nuclear repulsion energy        12.6935770769 Hartrees.
 NAtoms=    3 NActive=    3 NUniq=    2 SFac= 2.76D+00 NAtFMM=   60 Big=F
 One-electron integrals computed using PRISM.
 NBasis=    27 RedAO= T  NBF=    14     0     5     8
 NBsUse=    27 1.00D-06 NBFU=    14     0     5     8
 Initial guess read from the read-write file:
 Initial guess orbital symmetries:
       Occupied  (A1) (A1) (B2) (A1) (B1) (A1) (B2) (A1) (B1)
       Virtual   (A1) (B2) (B2) (A1) (B1) (A1) (B2) (A1) (B1) (B2)
                 (A1) (A1) (B2) (A1) (B1) (A1) (B2) (A1)
 Requested convergence on RMS density matrix=1.00D-08 within 128 cycles.
 Requested convergence on MAX density matrix=1.00D-06.
 Requested convergence on             energy=1.00D-06.
 No special actions if energy rises.
 Keep R1 integrals in memory in canonical form, NReq=      502038.
 SCF Done:  E(RHF) =  -398.655486007     A.U. after    7 cycles
             Convg  =    0.2422D-08             -V/T =  2.0000
             S**2   =   0.0000
 ***** Axes restored to original set *****
 -------------------------------------------------------------------
 Center     Atomic                   Forces (Hartrees/Bohr)
 Number     Number              X              Y              Z
 -------------------------------------------------------------------
    1         16           0.000000000    0.000000000   -0.000009274
    2          1           0.000000000   -0.000003881    0.000004637
    3          1           0.000000000    0.000003881    0.000004637
 -------------------------------------------------------------------
 Cartesian Forces:  Max     0.000009274 RMS     0.000004205

 GradGradGradGradGradGradGradGradGradGradGradGradGradGradGradGradGradGrad
 Berny optimization.
 Internal  Forces:  Max     0.000005989 RMS     0.000005045
 Search for a local minimum.
 Step number   4 out of a maximum of  20
 All quantities printed in internal units (Hartrees-Bohrs-Radians)
 Update second derivatives using D2CorX and points  1  2  3  4
 Trust test= 1.01D+00 RLast= 2.28D-03 DXMaxT set to 3.78D-01
 The second derivative matrix:
                          R1        R2        A1
           R1           0.26986
           R2          -0.00364   0.26986
           A1           0.01322   0.01322   0.20884
     Eigenvalues ---    0.20329   0.27178   0.27350
 RFO step:  Lambda= 0.00000000D+00.
 Quartic linear search produced a step of  0.01194.
 Iteration  1 RMS(Cart)=  0.00001408 RMS(Int)=  0.00000000
 Iteration  2 RMS(Cart)=  0.00000000 RMS(Int)=  0.00000000
 Variable       Old X    -DE/DX   Delta X   Delta X   Delta X     New X
                                 (Linear)    (Quad)   (Total)
    R1        2.57407  -0.00001  -0.00001  -0.00001  -0.00002   2.57405
    R2        2.57407  -0.00001  -0.00001  -0.00001  -0.00002   2.57405
    A1        1.67097   0.00000   0.00002  -0.00001   0.00001   1.67098
         Item               Value     Threshold  Converged?
 Maximum Force            0.000006     0.000450     YES
 RMS     Force            0.000005     0.000300     YES
 Maximum Displacement     0.000019     0.001800     YES
 RMS     Displacement     0.000014     0.001200     YES
 Predicted change in Energy=-1.528828D-10
 Optimization completed.
    -- Stationary point found.
                           ----------------------------
                           !   Optimized Parameters   !
                           ! (Angstroms and Degrees)  !
 --------------------------                            --------------------------
 ! Name  Definition              Value          Derivative Info.                !
 --------------------------------------------------------------------------------
 ! R1    R(1,2)                  1.3621         -DE/DX =    0.0                 !
 ! R2    R(1,3)                  1.3621         -DE/DX =    0.0                 !
 ! A1    A(2,1,3)               95.7394         -DE/DX =    0.0                 !
 --------------------------------------------------------------------------------
 GradGradGradGradGradGradGradGradGradGradGradGradGradGradGradGradGradGrad

                          Input orientation:                          
 ---------------------------------------------------------------------
 Center     Atomic     Atomic              Coordinates (Angstroms)
 Number     Number      Type              X           Y           Z
 ---------------------------------------------------------------------
    1         16             0        0.000000    0.000000    0.098843
    2          1             0        0.000000    1.010193   -0.814907
    3          1             0        0.000000   -1.010193   -0.814907
 ---------------------------------------------------------------------
                    Distance matrix (angstroms):
                    1          2          3
     1  S    0.000000
     2  H    1.362141   0.000000
     3  H    1.362141   2.020386   0.000000
 Stoichiometry    H2S
 Framework group  C2V[C2(S),SGV(H2)]
 Deg. of freedom     2
 Full point group                 C2V     NOp   4
 Largest Abelian subgroup         C2V     NOp   4
 Largest concise Abelian subgroup C2      NOp   2
                         Standard orientation:                         
 ---------------------------------------------------------------------
 Center     Atomic     Atomic              Coordinates (Angstroms)
 Number     Number      Type              X           Y           Z
 ---------------------------------------------------------------------
    1         16             0        0.000000    0.000000    0.101528
    2          1             0        0.000000    1.010193   -0.812222
    3          1             0        0.000000   -1.010193   -0.812222
 ---------------------------------------------------------------------
 Rotational constants (GHZ):    319.2265634    245.6933437    138.8371002

 **********************************************************************

            Population analysis using the SCF density.

 **********************************************************************

 Orbital symmetries:
       Occupied  (A1) (A1) (B2) (A1) (B1) (A1) (B2) (A1) (B1)
       Virtual   (A1) (B2) (B2) (A1) (B1) (A1) (B2) (A1) (B1) (B2)
                 (A1) (A1) (B2) (A1) (B1) (A1) (B2) (A1)
 The electronic state is 1-A1.
 Alpha  occ. eigenvalues --  -91.98063  -8.98534  -6.66745  -6.66563  -6.66299
 Alpha  occ. eigenvalues --   -0.99581  -0.59435  -0.48896  -0.39186
 Alpha virt. eigenvalues --    0.11870   0.14771   0.25243   0.26962   0.29595
 Alpha virt. eigenvalues --    0.44001   0.48460   0.77994   1.82871   1.84210
 Alpha virt. eigenvalues --    1.84252   2.46550   2.61495   8.23608  18.26599
 Alpha virt. eigenvalues --   18.29305  18.29769 192.07580
     Molecular Orbital Coefficients
                           1         2         3         4         5
                        (A1)--O   (A1)--O   (B2)--O   (A1)--O   (B1)--O
     EIGENVALUES --   -91.98063  -8.98534  -6.66745  -6.66563  -6.66299
   1 1   S  1S          0.41106  -0.11973   0.00000  -0.00186   0.00000
   2        2S          0.65498  -0.32485   0.00000  -0.00516   0.00000
   3        3S          0.01223   0.53288   0.00000   0.01013   0.00000
   4        4S         -0.00139   0.58670   0.00000   0.00712   0.00000
   5        5S          0.00042   0.03807   0.00000  -0.00148   0.00000
   6        6S         -0.00030  -0.01395   0.00000   0.00091   0.00000
   7        7PX         0.00000   0.00000   0.00000   0.00000   0.37630
   8        7PY         0.00000   0.00000   0.37503   0.00000   0.00000
   9        7PZ        -0.00017  -0.00419   0.00000   0.37543   0.00000
  10        8PX         0.00000   0.00000   0.00000   0.00000   0.71522
  11        8PY         0.00000   0.00000   0.71491   0.00000   0.00000
  12        8PZ         0.00005  -0.01059   0.00000   0.71492   0.00000
  13        9PX         0.00000   0.00000   0.00000   0.00000   0.04489
  14        9PY         0.00000   0.00000   0.04798   0.00000   0.00000
  15        9PZ        -0.00003  -0.00184   0.00000   0.04691   0.00000
  16       10PX         0.00000   0.00000   0.00000   0.00000  -0.00250
  17       10PY         0.00000   0.00000  -0.00381   0.00000   0.00000
  18       10PZ         0.00001   0.00006   0.00000  -0.00323   0.00000
  19       11PX         0.00000   0.00000   0.00000   0.00000   0.00077
  20       11PY         0.00000   0.00000   0.00151   0.00000   0.00000
  21       11PZ         0.00006   0.00264   0.00000   0.00074   0.00000
  22 2   H  1S          0.00000   0.00009   0.00011  -0.00020   0.00000
  23        2S         -0.00002  -0.00048   0.00102  -0.00052   0.00000
  24        3S          0.00009   0.00373  -0.00105   0.00003   0.00000
  25 3   H  1S          0.00000   0.00009  -0.00011  -0.00020   0.00000
  26        2S         -0.00002  -0.00048  -0.00102  -0.00052   0.00000
  27        3S          0.00009   0.00373   0.00105   0.00003   0.00000
                           6         7         8         9        10
                        (A1)--O   (B2)--O   (A1)--O   (B1)--O   (A1)--V
     EIGENVALUES --    -0.99581  -0.59435  -0.48896  -0.39186   0.11870
   1 1   S  1S          0.03068   0.00000   0.01364   0.00000   0.01264
   2        2S          0.08830   0.00000   0.03980   0.00000   0.03735
   3        3S         -0.18409   0.00000  -0.08791   0.00000  -0.08646
   4        4S         -0.34663   0.00000  -0.15037   0.00000  -0.12894
   5        5S          0.60749   0.00000   0.28024   0.00000   0.14777
   6        6S          0.41994   0.00000   0.35127   0.00000   1.48089
   7        7PX         0.00000   0.00000   0.00000  -0.09698   0.00000
   8        7PY         0.00000  -0.07321   0.00000   0.00000   0.00000
   9        7PZ         0.01847   0.00000  -0.07992   0.00000   0.03405
  10        8PX         0.00000   0.00000   0.00000  -0.19264   0.00000
  11        8PY         0.00000  -0.14920   0.00000   0.00000   0.00000
  12        8PZ         0.03943   0.00000  -0.16022   0.00000   0.06705
  13        9PX         0.00000   0.00000   0.00000   0.26505   0.00000
  14        9PY         0.00000   0.20214   0.00000   0.00000   0.00000
  15        9PZ        -0.04853   0.00000   0.21710   0.00000  -0.08571
  16       10PX         0.00000   0.00000   0.00000   0.62294   0.00000
  17       10PY         0.00000   0.38034   0.00000   0.00000   0.00000
  18       10PZ        -0.09640   0.00000   0.46063   0.00000  -0.30577
  19       11PX         0.00000   0.00000   0.00000   0.30123   0.00000
  20       11PY         0.00000   0.06259   0.00000   0.00000   0.00000
  21       11PZ        -0.01929   0.00000   0.15497   0.00000  -0.84000
  22 2   H  1S          0.08385   0.12964  -0.08500   0.00000  -0.05465
  23        2S          0.11280   0.28882  -0.18810   0.00000   0.00010
  24        3S         -0.01760   0.06886  -0.06120   0.00000  -1.26983
  25 3   H  1S          0.08385  -0.12964  -0.08500   0.00000  -0.05465
  26        2S          0.11280  -0.28882  -0.18810   0.00000   0.00010
  27        3S         -0.01760  -0.06886  -0.06120   0.00000  -1.26983
                          11        12        13        14        15
                        (B2)--V   (B2)--V   (A1)--V   (B1)--V   (A1)--V
     EIGENVALUES --     0.14771   0.25243   0.26962   0.29595   0.44001
   1 1   S  1S          0.00000   0.00000  -0.00342   0.00000  -0.00264
   2        2S          0.00000   0.00000  -0.01048   0.00000  -0.00789
   3        3S          0.00000   0.00000   0.02746   0.00000   0.01914
   4        4S          0.00000   0.00000   0.02474   0.00000   0.02314
   5        5S          0.00000   0.00000   0.03088   0.00000   0.11256
   6        6S          0.00000   0.00000  -0.46930   0.00000  -0.29830
   7        7PX         0.00000   0.00000   0.00000   0.06098   0.00000
   8        7PY         0.04727   0.04610   0.00000   0.00000   0.00000
   9        7PZ         0.00000   0.00000   0.04393   0.00000  -0.05833
  10        8PX         0.00000   0.00000   0.00000   0.10706   0.00000
  11        8PY         0.09316   0.08234   0.00000   0.00000   0.00000
  12        8PZ         0.00000   0.00000   0.07711   0.00000  -0.10557
  13        9PX         0.00000   0.00000   0.00000  -0.07963   0.00000
  14        9PY        -0.12216  -0.06224   0.00000   0.00000   0.00000
  15        9PZ         0.00000   0.00000  -0.05361   0.00000   0.08523
  16       10PX         0.00000   0.00000   0.00000  -0.89525   0.00000
  17       10PY        -0.38372  -0.65136   0.00000   0.00000   0.00000
  18       10PZ         0.00000   0.00000  -0.64804   0.00000   0.88989
  19       11PX         0.00000   0.00000   0.00000   1.23312   0.00000
  20       11PY        -1.44702   0.89868   0.00000   0.00000   0.00000
  21       11PZ         0.00000   0.00000   1.40536   0.00000  -0.33820
  22 2   H  1S          0.08341  -0.00582   0.01817   0.00000   0.08156
  23        2S          0.15681  -0.34681   0.32914   0.00000   1.14437
  24        3S          1.47248   0.53736   0.08634   0.00000  -0.75648
  25 3   H  1S         -0.08341   0.00582   0.01817   0.00000   0.08156
  26        2S         -0.15681   0.34681   0.32914   0.00000   1.14437
  27        3S         -1.47248  -0.53736   0.08634   0.00000  -0.75648
                          16        17        18        19        20
                        (B2)--V   (A1)--V   (B1)--V   (B2)--V   (A1)--V
     EIGENVALUES --     0.48460   0.77994   1.82871   1.84210   1.84252
   1 1   S  1S          0.00000  -0.03141   0.00000   0.00000  -0.00249
   2        2S          0.00000  -0.08628   0.00000   0.00000  -0.00693
   3        3S          0.00000   0.14337   0.00000   0.00000   0.01276
   4        4S          0.00000   0.59540   0.00000   0.00000   0.04754
   5        5S          0.00000  -2.48701   0.00000   0.00000  -0.15777
   6        6S          0.00000   3.52595   0.00000   0.00000   0.10579
   7        7PX         0.00000   0.00000  -0.16712   0.00000   0.00000
   8        7PY        -0.06047   0.00000   0.00000   0.16682   0.00000
   9        7PZ         0.00000  -0.01336   0.00000   0.00000   0.16643
  10        8PX         0.00000   0.00000  -0.42890   0.00000   0.00000
  11        8PY        -0.10953   0.00000   0.00000   0.43337   0.00000
  12        8PZ         0.00000  -0.03573   0.00000   0.00000   0.43018
  13        9PX         0.00000   0.00000   1.73621   0.00000   0.00000
  14        9PY         0.08735   0.00000   0.00000  -1.77883   0.00000
  15        9PZ         0.00000   0.11413   0.00000   0.00000  -1.76069
  16       10PX         0.00000   0.00000  -1.62713   0.00000   0.00000
  17       10PY         0.94303   0.00000   0.00000   1.84132   0.00000
  18       10PZ         0.00000  -0.07874   0.00000   0.00000   1.79180
  19       11PX         0.00000   0.00000   0.53068   0.00000   0.00000
  20       11PY        -1.69897   0.00000   0.00000  -0.79929   0.00000
  21       11PZ         0.00000  -0.86123   0.00000   0.00000  -0.56860
  22 2   H  1S         -0.06744   0.04683   0.00000   0.06581  -0.08761
  23        2S         -1.14520  -0.02913   0.00000  -0.43772   0.41771
  24        3S          2.26760  -1.14762   0.00000   0.50245  -0.23984
  25 3   H  1S          0.06744   0.04683   0.00000  -0.06581  -0.08761
  26        2S          1.14520  -0.02913   0.00000   0.43772   0.41771
  27        3S         -2.26760  -1.14762   0.00000  -0.50245  -0.23984
                          21        22        23        24        25
                        (A1)--V   (B2)--V   (A1)--V   (B1)--V   (A1)--V
     EIGENVALUES --     2.46550   2.61495   8.23608  18.26599  18.29305
   1 1   S  1S         -0.00092   0.00000   0.11235   0.00000   0.00033
   2        2S         -0.00068   0.00000   0.45587   0.00000   0.00176
   3        3S         -0.01716   0.00000  -2.52430   0.00000  -0.01263
   4        4S          0.09312   0.00000   2.89397   0.00000   0.01853
   5        5S         -0.32026   0.00000  -1.60090   0.00000  -0.00663
   6        6S          0.14998   0.00000   1.11315   0.00000  -0.01274
   7        7PX         0.00000   0.00000   0.00000  -1.21308   0.00000
   8        7PY         0.00000   0.00896   0.00000   0.00000   0.00000
   9        7PZ        -0.01273   0.00000   0.00590   0.00000  -1.21392
  10        8PX         0.00000   0.00000   0.00000   1.35808   0.00000
  11        8PY         0.00000   0.03763   0.00000   0.00000   0.00000
  12        8PZ        -0.04626   0.00000  -0.00168   0.00000   1.36136
  13        9PX         0.00000   0.00000   0.00000  -0.88216   0.00000
  14        9PY         0.00000  -0.18909   0.00000   0.00000   0.00000
  15        9PZ         0.22835   0.00000  -0.01374   0.00000  -0.89913
  16       10PX         0.00000   0.00000   0.00000   0.46390   0.00000
  17       10PY         0.00000  -0.11607   0.00000   0.00000   0.00000
  18       10PZ         0.01521   0.00000   0.04055   0.00000   0.50469
  19       11PX         0.00000   0.00000   0.00000  -0.13450   0.00000
  20       11PY         0.00000   0.33089   0.00000   0.00000   0.00000
  21       11PZ         0.06988   0.00000  -0.23764   0.00000  -0.13845
  22 2   H  1S         -1.10381  -1.13379  -0.00405   0.00000   0.00860
  23        2S          1.43711   1.53264   0.07192   0.00000   0.04988
  24        3S         -0.56489  -1.04905  -0.33000   0.00000  -0.02640
  25 3   H  1S         -1.10381   1.13379  -0.00405   0.00000   0.00860
  26        2S          1.43711  -1.53264   0.07192   0.00000   0.04988
  27        3S         -0.56489   1.04905  -0.33000   0.00000  -0.02640
                          26        27
                        (B2)--V   (A1)--V
     EIGENVALUES --    18.29769 192.07580
   1 1   S  1S          0.00000  -1.53805
   2        2S          0.00000   1.87589
   3        3S          0.00000  -1.34120
   4        4S          0.00000   0.86935
   5        5S          0.00000  -0.34756
   6        6S          0.00000   0.23829
   7        7PX         0.00000   0.00000
   8        7PY        -1.21421   0.00000
   9        7PZ         0.00000  -0.00032
  10        8PX         0.00000   0.00000
  11        8PY         1.36196   0.00000
  12        8PZ         0.00000   0.00089
  13        9PX         0.00000   0.00000
  14        9PY        -0.90283   0.00000
  15        9PZ         0.00000  -0.00328
  16       10PX         0.00000   0.00000
  17       10PY         0.51493   0.00000
  18       10PZ         0.00000   0.00893
  19       11PX         0.00000   0.00000
  20       11PY        -0.18761   0.00000
  21       11PZ         0.00000  -0.05181
  22 2   H  1S         -0.00837  -0.00198
  23        2S         -0.05864   0.01573
  24        3S          0.08518  -0.07149
  25 3   H  1S          0.00837  -0.00198
  26        2S          0.05864   0.01573
  27        3S         -0.08518  -0.07149
      DENSITY MATRIX.
                           1         2         3         4         5
   1 1   S  1S          0.36886
   2        2S          0.62277   1.08786
   3        3S         -0.13128  -0.36980   0.65167
   4        4S         -0.16703  -0.45625   0.77945   0.97405
   5        5S          0.03616   0.10542  -0.23239  -0.46077   0.89805
   6        6S          0.03844   0.11078  -0.23124  -0.41313   0.70603
   7        7PX         0.00000   0.00000   0.00000   0.00000   0.00000
   8        7PY         0.00000   0.00000   0.00000   0.00000   0.00000
   9        7PZ        -0.00158  -0.00447   0.01039   0.01166  -0.02378
  10        8PX         0.00000   0.00000   0.00000   0.00000   0.00000
  11        8PY         0.00000   0.00000   0.00000   0.00000   0.00000
  12        8PZ        -0.00203  -0.00622   0.01685   0.01860  -0.04482
  13        9PX         0.00000   0.00000   0.00000   0.00000   0.00000
  14        9PY         0.00000   0.00000   0.00000   0.00000   0.00000
  15        9PZ         0.00319   0.00938  -0.02131  -0.03313   0.06244
  16       10PX         0.00000   0.00000   0.00000   0.00000   0.00000
  17       10PY         0.00000   0.00000   0.00000   0.00000   0.00000
  18       10PZ         0.00666   0.01965  -0.04550  -0.07167   0.14107
  19       11PX         0.00000   0.00000   0.00000   0.00000   0.00000
  20       11PY         0.00000   0.00000   0.00000   0.00000   0.00000
  21       11PZ         0.00246   0.00729  -0.01732  -0.03013   0.06363
  22 2   H  1S          0.00280   0.00798  -0.01584  -0.03247   0.05424
  23        2S          0.00189   0.00525  -0.00899  -0.02220   0.03158
  24        3S         -0.00357  -0.01029   0.02122   0.03498  -0.05540
  25 3   H  1S          0.00280   0.00798  -0.01584  -0.03247   0.05424
  26        2S          0.00189   0.00525  -0.00899  -0.02220   0.03158
  27        3S         -0.00357  -0.01029   0.02122   0.03498  -0.05540
                           6         7         8         9        10
   6        6S          0.59987
   7        7PX         0.00000   0.30202
   8        7PY         0.00000   0.00000   0.29202
   9        7PZ        -0.03983   0.00000   0.00000   0.29539
  10        8PX         0.00000   0.57564   0.00000   0.00000   1.09729
  11        8PY         0.00000   0.00000   0.55807   0.00000   0.00000
  12        8PZ        -0.07784   0.00000   0.00000   0.56397   0.00000
  13        9PX         0.00000  -0.01763   0.00000   0.00000  -0.03791
  14        9PY         0.00000   0.00000   0.00639   0.00000   0.00000
  15        9PZ         0.11189   0.00000   0.00000  -0.00125   0.00000
  16       10PX         0.00000  -0.12271   0.00000   0.00000  -0.24358
  17       10PY         0.00000   0.00000  -0.05854   0.00000   0.00000
  18       10PZ         0.24264   0.00000   0.00000  -0.07962   0.00000
  19       11PX         0.00000  -0.05785   0.00000   0.00000  -0.11496
  20       11PY         0.00000   0.00000  -0.00803   0.00000   0.00000
  21       11PZ         0.09260   0.00000   0.00000  -0.02495   0.00000
  22 2   H  1S          0.01071   0.00000  -0.01890   0.01653   0.00000
  23        2S         -0.03740   0.00000  -0.04152   0.03385   0.00000
  24        3S         -0.05788   0.00000  -0.01087   0.00912   0.00000
  25 3   H  1S          0.01071   0.00000   0.01890   0.01653   0.00000
  26        2S         -0.03740   0.00000   0.04152   0.03385   0.00000
  27        3S         -0.05788   0.00000   0.01087   0.00912   0.00000
                          11        12        13        14        15
  11        8PY         1.06671
  12        8PZ         0.00000   1.07691
  13        9PX         0.00000   0.00000   0.14453
  14        9PY         0.00829   0.00000   0.00000   0.08633
  15        9PZ         0.00000  -0.00628   0.00000   0.00000   0.10338
  16       10PX         0.00000   0.00000   0.33000   0.00000   0.00000
  17       10PY        -0.11893   0.00000   0.00000   0.15340   0.00000
  18       10PZ         0.00000  -0.15983   0.00000   0.00000   0.20906
  19       11PX         0.00000   0.00000   0.15975   0.00000   0.00000
  20       11PY        -0.01652   0.00000   0.00000   0.02545   0.00000
  21       11PZ         0.00000  -0.05018   0.00000   0.00000   0.06922
  22 2   H  1S         -0.03852   0.03356   0.00000   0.05242  -0.04506
  23        2S         -0.08472   0.06844   0.00000   0.11686  -0.09267
  24        3S         -0.02205   0.01818   0.00000   0.02774  -0.02487
  25 3   H  1S          0.03852   0.03356   0.00000  -0.05242  -0.04506
  26        2S          0.08472   0.06844   0.00000  -0.11686  -0.09267
  27        3S          0.02205   0.01818   0.00000  -0.02774  -0.02487
                          16        17        18        19        20
  16       10PX         0.77612
  17       10PY         0.00000   0.28934
  18       10PZ         0.00000   0.00000   0.44297
  19       11PX         0.37529   0.00000   0.00000   0.18148
  20       11PY         0.00000   0.04760   0.00000   0.00000   0.00784
  21       11PZ         0.00000   0.00000   0.14648   0.00000   0.00000
  22 2   H  1S          0.00000   0.09862  -0.09447   0.00000   0.01623
  23        2S          0.00000   0.21969  -0.19503   0.00000   0.03616
  24        3S          0.00000   0.05239  -0.05299   0.00000   0.00862
  25 3   H  1S          0.00000  -0.09862  -0.09447   0.00000  -0.01623
  26        2S          0.00000  -0.21969  -0.19503   0.00000  -0.03616
  27        3S          0.00000  -0.05239  -0.05299   0.00000  -0.00862
                          21        22        23        24        25
  21       11PZ         0.04879
  22 2   H  1S         -0.02958   0.06212
  23        2S         -0.06265   0.12578   0.26304
  24        3S         -0.01827   0.02531   0.05882   0.01763
  25 3   H  1S         -0.02958  -0.00511  -0.02399  -0.01040   0.06212
  26        2S         -0.06265  -0.02399  -0.07062  -0.02073   0.12578
  27        3S         -0.01827  -0.01040  -0.02073  -0.00135   0.02531
[...]
    Full Mulliken population analysis:
                           1         2         3         4         5
   1 1   S  1S          0.36886
   2        2S          0.45232   1.08786
   3        3S         -0.02919  -0.21388   0.65167
   4        4S         -0.01879  -0.15015   0.66018   0.97405
   5        5S          0.00123   0.01120  -0.08496  -0.29442   0.89805
   6        6S          0.00056   0.00513  -0.03902  -0.13522   0.56266
   7        7PX         0.00000   0.00000   0.00000   0.00000   0.00000
   8        7PY         0.00000   0.00000   0.00000   0.00000   0.00000
   9        7PZ         0.00000   0.00000   0.00000   0.00000   0.00000
  10        8PX         0.00000   0.00000   0.00000   0.00000   0.00000
  11        8PY         0.00000   0.00000   0.00000   0.00000   0.00000
  12        8PZ         0.00000   0.00000   0.00000   0.00000   0.00000
  13        9PX         0.00000   0.00000   0.00000   0.00000   0.00000
  14        9PY         0.00000   0.00000   0.00000   0.00000   0.00000
  15        9PZ         0.00000   0.00000   0.00000   0.00000   0.00000
  16       10PX         0.00000   0.00000   0.00000   0.00000   0.00000
  17       10PY         0.00000   0.00000   0.00000   0.00000   0.00000
  18       10PZ         0.00000   0.00000   0.00000   0.00000   0.00000
  19       11PX         0.00000   0.00000   0.00000   0.00000   0.00000
  20       11PY         0.00000   0.00000   0.00000   0.00000   0.00000
  21       11PZ         0.00000   0.00000   0.00000   0.00000   0.00000
  22 2   H  1S          0.00000   0.00000  -0.00002  -0.00018   0.00529
  23        2S          0.00001   0.00005  -0.00036  -0.00191   0.00925
  24        3S         -0.00002  -0.00020   0.00150   0.00495  -0.02270
  25 3   H  1S          0.00000   0.00000  -0.00002  -0.00018   0.00529
  26        2S          0.00001   0.00005  -0.00036  -0.00191   0.00925
  27        3S         -0.00002  -0.00020   0.00150   0.00495  -0.02270
                           6         7         8         9        10
   6        6S          0.59987
   7        7PX         0.00000   0.30202
   8        7PY         0.00000   0.00000   0.29202
   9        7PZ         0.00000   0.00000   0.00000   0.29539
  10        8PX         0.00000   0.32814   0.00000   0.00000   1.09729
  11        8PY         0.00000   0.00000   0.31813   0.00000   0.00000
  12        8PZ         0.00000   0.00000   0.00000   0.32149   0.00000
  13        9PX         0.00000  -0.00205   0.00000   0.00000  -0.02065
  14        9PY         0.00000   0.00000   0.00074   0.00000   0.00000
  15        9PZ         0.00000   0.00000   0.00000  -0.00015   0.00000
  16       10PX         0.00000  -0.00407   0.00000   0.00000  -0.05087
  17       10PY         0.00000   0.00000  -0.00194   0.00000   0.00000
  18       10PZ         0.00000   0.00000   0.00000  -0.00264   0.00000
  19       11PX         0.00000  -0.00040   0.00000   0.00000  -0.00572
  20       11PY         0.00000   0.00000  -0.00006   0.00000   0.00000
  21       11PZ         0.00000   0.00000   0.00000  -0.00017   0.00000
  22 2   H  1S          0.00211   0.00000   0.00000   0.00000   0.00000
  23        2S         -0.01724   0.00000  -0.00022  -0.00016   0.00000
  24        3S         -0.03870   0.00000  -0.00003  -0.00003   0.00000
  25 3   H  1S          0.00211   0.00000   0.00000   0.00000   0.00000
  26        2S         -0.01724   0.00000  -0.00022  -0.00016   0.00000
  27        3S         -0.03870   0.00000  -0.00003  -0.00003   0.00000
                          11        12        13        14        15
  11        8PY         1.06671
  12        8PZ         0.00000   1.07691
  13        9PX         0.00000   0.00000   0.14453
  14        9PY         0.00451   0.00000   0.00000   0.08633
  15        9PZ         0.00000  -0.00342   0.00000   0.00000   0.10338
  16       10PX         0.00000   0.00000   0.23460   0.00000   0.00000
  17       10PY        -0.02484   0.00000   0.00000   0.10905   0.00000
  18       10PZ         0.00000  -0.03338   0.00000   0.00000   0.14862
  19       11PX         0.00000   0.00000   0.03818   0.00000   0.00000
  20       11PY        -0.00082   0.00000   0.00000   0.00608   0.00000
  21       11PZ         0.00000  -0.00250   0.00000   0.00000   0.01654
  22 2   H  1S         -0.00020  -0.00016   0.00000   0.00393   0.00306
  23        2S         -0.00327  -0.00239   0.00000   0.02131   0.01528
  24        3S         -0.00049  -0.00036   0.00000   0.00295   0.00240
  25 3   H  1S         -0.00020  -0.00016   0.00000   0.00393   0.00306
  26        2S         -0.00327  -0.00239   0.00000   0.02131   0.01528
  27        3S         -0.00049  -0.00036   0.00000   0.00295   0.00240
                          16        17        18        19        20
  16       10PX         0.77612
  17       10PY         0.00000   0.28934
  18       10PZ         0.00000   0.00000   0.44297
  19       11PX         0.23211   0.00000   0.00000   0.18148
  20       11PY         0.00000   0.02944   0.00000   0.00000   0.00784
  21       11PZ         0.00000   0.00000   0.09060   0.00000   0.00000
  22 2   H  1S          0.00000   0.02361   0.02046   0.00000   0.00311
  23        2S          0.00000   0.08798   0.07065   0.00000   0.01431
  24        3S          0.00000   0.01450   0.01327   0.00000   0.00384
  25 3   H  1S          0.00000   0.02361   0.02046   0.00000   0.00311
  26        2S          0.00000   0.08798   0.07065   0.00000   0.01431
  27        3S          0.00000   0.01450   0.01327   0.00000   0.00384
                          21        22        23        24        25
  21       11PZ         0.04879
  22 2   H  1S          0.00512   0.06212
  23        2S          0.02243   0.08885   0.26304
  24        3S          0.00736   0.00946   0.04641   0.01763
  25 3   H  1S          0.00512   0.00000  -0.00040  -0.00098   0.06212
  26        2S          0.02243  -0.00040  -0.00657  -0.00524   0.08885
  27        3S          0.00736  -0.00098  -0.00524  -0.00064   0.00946
                          26        27
  26        2S          0.26304
  27        3S          0.04641   0.01763
     Gross orbital populations:
                           1
   1 1   S  1S          0.77496
   2        2S          1.19220
   3        3S          0.94705
   4        4S          1.04139
   5        5S          1.07742
   6        6S          0.88634
   7        7PX         0.62364
   8        7PY         0.60837
   9        7PZ         0.61354
  10        8PX         1.34819
  11        8PY         1.35579
  12        8PZ         1.35329
  13        9PX         0.39462
  14        9PY         0.26310
  15        9PZ         0.30645
  16       10PX         1.18789
  17       10PY         0.65325
  18       10PZ         0.85492
  19       11PX         0.44565
  20       11PY         0.08500
  21       11PZ         0.22309
  22 2   H  1S          0.22519
  23        2S          0.60184
  24        3S          0.05488
  25 3   H  1S          0.22519
  26        2S          0.60184
  27        3S          0.05488
          Condensed to atoms (all electrons):
              1          2          3
     1  S   15.695949   0.270115   0.270115
     2  H    0.270115   0.632221  -0.020425
     3  H    0.270115  -0.020425   0.632221
 Mulliken atomic charges:
              1
     1  S   -0.236178
     2  H    0.118089
     3  H    0.118089
 Sum of Mulliken charges=   0.00000
 Atomic charges with hydrogens summed into heavy atoms:
              1
     1  S    0.000000
     2  H    0.000000
     3  H    0.000000
 Sum of Mulliken charges=   0.00000
 APT atomic charges:
              1
     1  S   -0.099632
     2  H    0.049816
     3  H    0.049816
 Sum of APT charges=   0.00000
 APT Atomic charges with hydrogens summed into heavy atoms:
              1
     1  S    0.000000
     2  H    0.000000
     3  H    0.000000
 Sum of APT charges=   0.00000
 Electronic spatial extent (au):  <R**2>=    45.3840
 Charge=     0.0000 electrons
 Dipole moment (field-independent basis, Debye):
    X=     0.0000    Y=     0.0000    Z=    -1.8697  Tot=     1.8697
 Quadrupole moment (field-independent basis, Debye-Ang):
   XX=   -17.1933   YY=   -12.5276   ZZ=   -14.3892
   XY=     0.0000   XZ=     0.0000   YZ=     0.0000
 Traceless Quadrupole moment (field-independent basis, Debye-Ang):
   XX=    -2.4900   YY=     2.1758   ZZ=     0.3142
   XY=     0.0000   XZ=     0.0000   YZ=     0.0000
 Octapole moment (field-independent basis, Debye-Ang**2):
  XXX=     0.0000  YYY=     0.0000  ZZZ=    -1.7997  XYY=     0.0000
  XXY=     0.0000  XXZ=    -0.7209  XZZ=     0.0000  YZZ=     0.0000
  YYZ=    -0.9955  XYZ=     0.0000
 Hexadecapole moment (field-independent basis, Debye-Ang**3):
 XXXX=   -27.4094 YYYY=   -23.7946 ZZZZ=   -26.5229 XXXY=     0.0000
 XXXZ=     0.0000 YYYX=     0.0000 YYYZ=     0.0000 ZZZX=     0.0000
 ZZZY=     0.0000 XXYY=    -8.7987 XXZZ=    -9.1409 YYZZ=    -7.7329
 XXYZ=     0.0000 YYXZ=     0.0000 ZZXY=     0.0000
 N-N= 1.269357707687D+01 E-N=-9.744765395688D+02  KE= 3.986444556722D+02
 Symmetry A1   KE= 3.223564584580D+02
 Symmetry A2   KE= 0.000000000000D+00
 Symmetry B1   KE= 3.863564598110D+01
 Symmetry B2   KE= 3.765235123313D+01
 Orbital energies and kinetic energies (alpha):
                           1         2
       1  (A1)--O     -91.98063 121.16555
       2  (A1)--O      -8.98534  18.71072
       3  (B2)--O      -6.66745  17.56252
       4  (A1)--O      -6.66563  17.58526
       5  (B1)--O      -6.66299  17.62636
       6  (A1)--O      -0.99581   2.04802
       7  (B2)--O      -0.59435   1.26366
       8  (A1)--O      -0.48896   1.66868
       9  (B1)--O      -0.39186   1.69146
      10  (A1)--V       0.11870   0.75902
      11  (B2)--V       0.14771   0.73206
      12  (B2)--V       0.25243   0.64648
      13  (A1)--V       0.26962   0.64523
      14  (B1)--V       0.29595   0.88292
      15  (A1)--V       0.44001   1.38064
      16  (B2)--V       0.48460   1.34098
      17  (A1)--V       0.77994   2.81432
      18  (B1)--V       1.82871   5.83528
      19  (B2)--V       1.84210   5.90427
      20  (A1)--V       1.84252   5.87572
      21  (A1)--V       2.46550   3.86648
      22  (B2)--V       2.61495   4.03049
      23  (A1)--V       8.23608  30.32651
      24  (B1)--V      18.26599  55.80446
      25  (A1)--V      18.29305  55.86212
      26  (B2)--V      18.29769  55.88461
      27  (A1)--V     192.07580 486.97764
 Total kinetic energy from orbitals= 3.986444556722D+02
  Exact polarizability:   7.536   0.000  18.896   0.000   0.000  15.777
 Approx polarizability:   5.401   0.000  14.893   0.000   0.000  12.099
 Full mass-weighted force constant matrix:
 Low frequencies ---   -0.0030   -0.0009    0.0044    7.3006    7.9131    8.6531
 Low frequencies --- 1300.2112 2648.3568 2662.3438
 Diagonal vibrational polarizability:
        0.0000000       0.0398623       0.1704349
 Diagonal vibrational hyperpolarizability:
        0.0000000       0.0000000      13.5635657
 Harmonic frequencies (cm**-1), IR intensities (KM/Mole), Raman scattering
 activities (A**4/AMU), depolarization ratios for plane and unpolarized
 incident light, reduced masses (AMU), force constants (mDyne/A),
 and normal coordinates:
                     1                      2                      3
                    A1                     A1                     B2
 Frequencies --  1300.2112              2648.3568              2662.3438
 Red. masses --     1.0419                 1.0334                 1.0416
 Frc consts  --     1.0377                 4.2705                 4.3500
 IR Inten    --     6.6003                17.0365                10.4992
 Raman Activ --    56.2861               247.8867               178.9881
 Depolar (P) --     0.6976                 0.2196                 0.7500
 Depolar (U) --     0.8219                 0.3602                 0.8571
 Atom AN      X      Y      Z        X      Y      Z        X      Y      Z
   1  16     0.00   0.00   0.03     0.00   0.00   0.03     0.00   0.03   0.00
   2   1     0.00  -0.47  -0.53     0.00   0.54  -0.46     0.00  -0.52   0.47
   3   1     0.00   0.47  -0.53     0.00  -0.54  -0.46     0.00  -0.52  -0.47

 -------------------
 - Thermochemistry -
 -------------------
 Temperature   298.150 Kelvin.  Pressure   1.00000 Atm.
 Atom  1 has atomic number 16 and mass  31.97207
 Atom  2 has atomic number  1 and mass   1.00783
 Atom  3 has atomic number  1 and mass   1.00783
 Molecular mass:    33.98772 amu.
 Principal axes and moments of inertia in atomic units:
                           1         2         3
     EIGENVALUES --     5.65348   7.34550  12.99898
           X            0.00000   0.00000   1.00000
           Y            1.00000   0.00000   0.00000
           Z            0.00000   1.00000   0.00000
 This molecule is an asymmetric top.
 Rotational symmetry number  2.
 Rotational temperatures (Kelvin)     15.32044    11.79141     6.66312
 Rotational constants (GHZ):         319.22656   245.69334   138.83710
 Zero-point vibrational energy      39542.0 (Joules/Mol)
                                    9.45077 (Kcal/Mol)
 Vibrational temperatures:   1870.71  3810.39  3830.51
          (Kelvin)
 
 Zero-point correction=                           0.015061 (Hartree/Particle)
 Thermal correction to Energy=                    0.017905
 Thermal correction to Enthalpy=                  0.018849
 Thermal correction to Gibbs Free Energy=        -0.004530
 Sum of electronic and zero-point Energies=           -398.640425
 Sum of electronic and thermal Energies=              -398.637581
 Sum of electronic and thermal Enthalpies=            -398.636637
 Sum of electronic and thermal Free Energies=         -398.660016
 
                     E (Thermal)             CV                S
                      KCal/Mol        Cal/Mol-Kelvin    Cal/Mol-Kelvin
 Total                   11.235              6.111             49.205
 Electronic               0.000              0.000              0.000
 Translational            0.889              2.981             36.501
 Rotational               0.889              2.981             12.676
 Vibrational              9.458              0.150              0.027
                       Q            Log10(Q)             Ln(Q)
 Total Bot       0.121267D+03          2.083743          4.797995
 Total V=0       0.102612D+10          9.011199         20.749053
 Vib (Bot)       0.118404D-06         -6.926635        -15.949167
 Vib (V=0)       0.100189D+01          0.000821          0.001891
 Electronic      0.100000D+01          0.000000          0.000000
 Translational   0.778822D+07          6.891438         15.868123
 Rotational      0.131504D+03          2.118940          4.879039
 ***** Axes restored to original set *****
 -------------------------------------------------------------------
 Center     Atomic                   Forces (Hartrees/Bohr)
 Number     Number              X              Y              Z
 -------------------------------------------------------------------
    1         16           0.000000000    0.000000000   -0.000009274
    2          1           0.000000000   -0.000003881    0.000004637
    3          1           0.000000000    0.000003881    0.000004637
 -------------------------------------------------------------------
 Cartesian Forces:  Max     0.000009274 RMS     0.000004205

 GradGradGradGradGradGradGradGradGradGradGradGradGradGradGradGradGradGrad
 Berny optimization.
 Internal  Forces:  Max     0.000005989 RMS     0.000005045
 Search for a local minimum.
 Step number   1 out of a maximum of   2
 All quantities printed in internal units (Hartrees-Bohrs-Radians)
 Second derivative matrix not updated -- analytic derivatives used.
 The second derivative matrix:
                          R1        R2        A1
           R1           0.26082
           R2          -0.00046   0.26082
           A1           0.01114   0.01114   0.20740
     Eigenvalues ---    0.20307   0.26128   0.26469
 Angle between quadratic step and forces=   6.92 degrees.
 Linear search not attempted -- first point.
 Iteration  1 RMS(Cart)=  0.00001423 RMS(Int)=  0.00000000
 Iteration  2 RMS(Cart)=  0.00000000 RMS(Int)=  0.00000000
 Variable       Old X    -DE/DX   Delta X   Delta X   Delta X     New X
                                 (Linear)    (Quad)   (Total)
    R1        2.57407  -0.00001   0.00000  -0.00002  -0.00002   2.57405
    R2        2.57407  -0.00001   0.00000  -0.00002  -0.00002   2.57405
    A1        1.67097   0.00000   0.00000   0.00001   0.00001   1.67098
         Item               Value     Threshold  Converged?
 Maximum Force            0.000006     0.000450     YES
 RMS     Force            0.000005     0.000300     YES
 Maximum Displacement     0.000019     0.001800     YES
 RMS     Displacement     0.000014     0.001200     YES
 Predicted change in Energy=-1.549354D-10
 Optimization completed.
    -- Stationary point found.
                           ----------------------------
                           !   Optimized Parameters   !
                           ! (Angstroms and Degrees)  !
 --------------------------                            --------------------------
 ! Name  Definition              Value          Derivative Info.                !
 --------------------------------------------------------------------------------
 ! R1    R(1,2)                  1.3621         -DE/DX =    0.0                 !
 ! R2    R(1,3)                  1.3621         -DE/DX =    0.0                 !
 ! A1    A(2,1,3)               95.7394         -DE/DX =    0.0                 !
 --------------------------------------------------------------------------------
 GradGradGradGradGradGradGradGradGradGradGradGradGradGradGradGradGradGrad

 1|1|UNPC-UNK|Freq|RHF|6-311G|H2S1|PCUSER|14-Jun-2017|0||#N GEOM=ALLCHE
 CK GUESS=READ SCRF=CHECK GENCHK RHF/6-311G FREQ||Optimizacion geometri
 a H2S Singlete RHF en 6-311G||0,1|S,0.,0.,0.101527723|H,0.,1.010192950
 3,-0.8122217839|H,0.,-1.0101929503,-0.8122217839||Version=x86-Win32-G0
 3RevB.03|State=1-A1|HF=-398.655486|RMSD=4.124e-010|RMSF=4.205e-006|Dip
 ole=0.,0.,-0.7356138|DipoleDeriv=-0.426014,0.,0.,0.,-0.0778594,0.,0.,0
 .,0.2049766,0.213007,0.,0.,0.,0.0389297,0.0324304,0.,0.1574581,-0.1024
 883,0.213007,0.,0.,0.,0.0389297,-0.0324304,0.,-0.1574581,-0.1024883|Po
 lar=7.5356287,0.,18.8962812,0.,0.,15.7768241|PolarDeriv=0.,0.,0.,4.772
 7008,0.,0.,0.,0.,0.,0.,10.0059518,0.,-2.4191996,0.,6.3904813,0.,0.,15.
 8625409,0.,2.9755694,0.,-2.3863504,0.,0.,-1.4365173,0.,8.6162987,0.,-5
 .0029759,1.9391122,1.2095998,0.,-3.1952406,0.,5.3423849,-7.9312705,0.,
 -2.9755694,0.,-2.3863504,0.,0.,1.4365173,0.,-8.6162987,0.,-5.0029759,-
 1.9391122,1.2095998,0.,-3.1952406,0.,-5.3423849,-7.9312705|HyperPolar=
 0.,0.,0.,0.,-5.8394298,0.,-35.3394766,0.,0.,-15.0872336|PG=C02V [C2(S1
 ),SGV(H2)]|NImag=0||0.00000537,0.,0.28740866,0.,0.,0.28597037,-0.00000
 269,0.,0.,0.00000236,0.,-0.14370433,0.09751761,0.,0.16184263,0.,0.1299
 8240,-0.14298519,0.,-0.11375000,0.13028007,-0.00000269,0.,0.,0.0000003
 3,0.,0.,0.00000236,0.,-0.14370433,-0.09751761,0.,-0.01813830,-0.016232
 40,0.,0.16184263,0.,-0.12998240,-0.14298519,0.,0.01623240,0.01270511,0
 .,0.11375000,0.13028007||0.,0.,0.00000927,0.,0.00000388,-0.00000464,0.
 ,-0.00000388,-0.00000464|||@


 IT WAS A GAME, A VERY INTERESTING GAME ONE COULD
 PLAY.  WHENEVER ONE SOLVED ONE OF THE LITTLE PROBLEMS,
 ONE COULD WRITE A PAPER ABOUT IT.  IT WAS VERY EASY IN
 THOSE DAYS FOR ANY SECOND-RATE PHYSICIST TO DO
 FIRST-RATE WORK.  THERE HAS NOT BEEN SUCH A GLORIOUS
 TIME SINCE.  IT IS VERY DIFFICULT NOW FOR A FIRST-RATE
 PHYSICIST TO DO SECOND-RATE WORK.
     P.A.M. DIRAC, ON THE EARLY DAYS OF QUANTUM MECHANICS
                   DIRECTIONS IN PHYSICS, 1978, P. 7
 Job cpu time:  0 days  0 hours  0 minutes  3.0 seconds.
 File lengths (MBytes):  RWF=     11 Int=      0 D2E=      0 Chk=      4 Scr=      1
 Normal termination of Gaussian 03 at Wed Jun 14 11:53:34 2017.
