
     Program PROJWFC v.4.3.2    starts on 30Sep2016 at 19:13:55 

     This program is part of the open-source Quantum ESPRESSO suite
     for quantum simulation of materials; please cite
         "P. Giannozzi et al., J. Phys.:Condens. Matter 21 395502 (2009);
          URL http://www.quantum-espresso.org", 
     in publications or presentations arising from this work. More details at
     http://www.quantum-espresso.org/wiki/index.php/Citing_Quantum-ESPRESSO

     Parallel version (MPI), running on     1 processors

   Info: using nr1, nr2, nr3 values from input

   Info: using nr1s, nr2s, nr3s values from input

     G-vector sticks info
     --------------------
     sticks:   dense  smooth     PW     G-vecs:    dense   smooth      PW
     Sum         139     139     55                 1067     1067     259


     Check: negative/imaginary core charge=   -0.000066    0.000000

     Gaussian broadening (read from input): ngauss,degauss=   1    0.020000


     Calling projwave .... 

     Atomic states used for projection
     (read from pseudopotential files):

     state #   1: atom   1 (Al ), wfc  1 (l=0 m= 1)
     state #   2: atom   1 (Al ), wfc  2 (l=1 m= 1)
     state #   3: atom   1 (Al ), wfc  2 (l=1 m= 2)
     state #   4: atom   1 (Al ), wfc  2 (l=1 m= 3)

 k =   0.7500000000  0.7500000000  0.0000000000
==== e(   1) =     7.00326 eV ==== 
     psi = 0.331*[#   2]+0.331*[#   3]+0.331*[#   4]+
    |psi|^2 = 0.992
==== e(   2) =     7.59412 eV ==== 
     psi = 0.308*[#   2]+0.308*[#   3]+0.308*[#   4]+0.056*[#   1]+
    |psi|^2 = 0.979
==== e(   3) =     8.62965 eV ==== 
     psi = 0.848*[#   1]+0.017*[#   2]+0.017*[#   3]+0.017*[#   4]+
    |psi|^2 = 0.898
==== e(   4) =    15.80069 eV ==== 
     psi = 0.317*[#   2]+0.317*[#   3]+0.317*[#   4]+
    |psi|^2 = 0.952
==== e(   5) =    17.41876 eV ==== 
     psi = 0.082*[#   1]+
    |psi|^2 = 0.083
==== e(   6) =    25.05925 eV ==== 
     psi = 0.008*[#   2]+0.008*[#   3]+0.008*[#   4]+0.007*[#   1]+
    |psi|^2 = 0.030

 k =   0.8000000000  0.7000000000  0.0000000000
==== e(   1) =     7.04624 eV ==== 
     psi = 0.331*[#   2]+0.331*[#   3]+0.331*[#   4]+
    |psi|^2 = 0.992
==== e(   2) =     7.63406 eV ==== 
     psi = 0.308*[#   2]+0.308*[#   3]+0.308*[#   4]+0.056*[#   1]+
    |psi|^2 = 0.979
==== e(   3) =     8.67186 eV ==== 
     psi = 0.821*[#   1]+0.028*[#   2]+0.028*[#   3]+0.028*[#   4]+
    |psi|^2 = 0.905
==== e(   4) =    14.79557 eV ==== 
     psi = 0.262*[#   2]+0.262*[#   3]+0.262*[#   4]+0.074*[#   1]+
    |psi|^2 = 0.860
==== e(   5) =    18.49066 eV ==== 
     psi = 0.045*[#   2]+0.045*[#   3]+0.045*[#   4]+0.036*[#   1]+
    |psi|^2 = 0.171
==== e(   6) =    25.09829 eV ==== 
     psi = 0.008*[#   2]+0.008*[#   3]+0.008*[#   4]+0.007*[#   1]+
    |psi|^2 = 0.030

 k =   0.8500000000  0.6500000000  0.0000000000
==== e(   1) =     7.17595 eV ==== 
     psi = 0.330*[#   2]+0.330*[#   3]+0.330*[#   4]+
    |psi|^2 = 0.991
==== e(   2) =     7.75159 eV ==== 
     psi = 0.308*[#   2]+0.308*[#   3]+0.308*[#   4]+0.055*[#   1]+
    |psi|^2 = 0.978
==== e(   3) =     8.79674 eV ==== 
     psi = 0.744*[#   1]+0.059*[#   2]+0.059*[#   3]+0.059*[#   4]+
    |psi|^2 = 0.921
==== e(   4) =    13.33756 eV ==== 
     psi = 0.243*[#   2]+0.243*[#   3]+0.243*[#   4]+0.173*[#   1]+
    |psi|^2 = 0.903
==== e(   5) =    20.15183 eV ==== 
     psi = 0.035*[#   2]+0.035*[#   3]+0.035*[#   4]+0.014*[#   1]+
    |psi|^2 = 0.118
==== e(   6) =    25.21531 eV ==== 
     psi = 0.009*[#   2]+0.009*[#   3]+0.009*[#   4]+0.006*[#   1]+
    |psi|^2 = 0.033

 k =   0.9000000000  0.6000000000  0.0000000000
==== e(   1) =     7.39115 eV ==== 
     psi = 0.330*[#   2]+0.330*[#   3]+0.330*[#   4]+
    |psi|^2 = 0.990
==== e(   2) =     7.93494 eV ==== 
     psi = 0.309*[#   2]+0.309*[#   3]+0.309*[#   4]+0.051*[#   1]+
    |psi|^2 = 0.977
==== e(   3) =     8.99101 eV ==== 
     psi = 0.606*[#   1]+0.110*[#   2]+0.110*[#   3]+0.110*[#   4]+
    |psi|^2 = 0.935
==== e(   4) =    11.93023 eV ==== 
     psi = 0.322*[#   1]+0.208*[#   2]+0.208*[#   3]+0.208*[#   4]+
    |psi|^2 = 0.945
==== e(   5) =    21.91113 eV ==== 
     psi = 0.020*[#   2]+0.020*[#   3]+0.020*[#   4]+0.006*[#   1]+
    |psi|^2 = 0.067
==== e(   6) =    25.40508 eV ==== 
     psi = 0.011*[#   2]+0.011*[#   3]+0.011*[#   4]+0.005*[#   1]+
    |psi|^2 = 0.037

 k =   0.9500000000  0.5500000000  0.0000000000
==== e(   1) =     7.69126 eV ==== 
     psi = 0.329*[#   2]+0.329*[#   3]+0.329*[#   4]+
    |psi|^2 = 0.988
==== e(   2) =     8.13778 eV ==== 
     psi = 0.314*[#   2]+0.314*[#   3]+0.314*[#   4]+0.037*[#   1]+
    |psi|^2 = 0.978
==== e(   3) =     9.20241 eV ==== 
     psi = 0.328*[#   1]+0.204*[#   2]+0.204*[#   3]+0.204*[#   4]+
    |psi|^2 = 0.939
==== e(   4) =    10.71540 eV ==== 
     psi = 0.617*[#   1]+0.118*[#   2]+0.118*[#   3]+0.118*[#   4]+
    |psi|^2 = 0.970
==== e(   5) =    23.66961 eV ==== 
     psi = 0.011*[#   2]+0.011*[#   3]+0.011*[#   4]+0.002*[#   1]+
    |psi|^2 = 0.035
==== e(   6) =    25.64775 eV ==== 
     psi = 0.015*[#   2]+0.015*[#   3]+0.015*[#   4]+0.003*[#   1]+
    |psi|^2 = 0.047

 k =   1.0000000000  0.5000000000  0.0000000000
==== e(   1) =     8.07874 eV ==== 
     psi = 0.328*[#   2]+0.328*[#   3]+0.328*[#   4]+
    |psi|^2 = 0.983
==== e(   2) =     8.07874 eV ==== 
     psi = 0.328*[#   2]+0.328*[#   3]+0.328*[#   4]+
    |psi|^2 = 0.983
==== e(   3) =     9.23917 eV ==== 
     psi = 0.311*[#   2]+0.311*[#   3]+0.311*[#   4]+
    |psi|^2 = 0.934
==== e(   4) =    10.17928 eV ==== 
     psi = 0.983*[#   1]+
    |psi|^2 = 0.983
==== e(   5) =    25.23043 eV ==== 
     psi = 0.005*[#   2]+0.005*[#   3]+0.005*[#   4]+
    |psi|^2 = 0.015
==== e(   6) =    25.23043 eV ==== 
     psi = 0.005*[#   2]+0.005*[#   3]+0.005*[#   4]+
    |psi|^2 = 0.015

 k =   0.9000000000  0.4500000000  0.0000000000
==== e(   1) =     6.59108 eV ==== 
     psi = 0.276*[#   2]+0.276*[#   3]+0.276*[#   4]+0.161*[#   1]+
    |psi|^2 = 0.988
==== e(   2) =     8.62001 eV ==== 
     psi = 0.325*[#   2]+0.325*[#   3]+0.325*[#   4]+
    |psi|^2 = 0.975
==== e(   3) =     9.97945 eV ==== 
     psi = 0.294*[#   2]+0.294*[#   3]+0.294*[#   4]+0.042*[#   1]+
    |psi|^2 = 0.925
==== e(   4) =    10.81072 eV ==== 
     psi = 0.779*[#   1]+0.066*[#   2]+0.066*[#   3]+0.066*[#   4]+
    |psi|^2 = 0.977
==== e(   5) =    24.07685 eV ==== 
     psi = 0.007*[#   2]+0.007*[#   3]+0.007*[#   4]+
    |psi|^2 = 0.021
==== e(   6) =    25.10154 eV ==== 
     psi = 0.024*[#   2]+0.024*[#   3]+0.024*[#   4]+
    |psi|^2 = 0.071

 k =   0.8000000000  0.4000000000  0.0000000000
==== e(   1) =     4.76581 eV ==== 
     psi = 0.251*[#   1]+0.248*[#   2]+0.248*[#   3]+0.248*[#   4]+
    |psi|^2 = 0.993
==== e(   2) =     9.37460 eV ==== 
     psi = 0.321*[#   2]+0.321*[#   3]+0.321*[#   4]+
    |psi|^2 = 0.962
==== e(   3) =    10.92131 eV ==== 
     psi = 0.233*[#   2]+0.233*[#   3]+0.233*[#   4]+0.227*[#   1]+
    |psi|^2 = 0.925
==== e(   4) =    12.18063 eV ==== 
     psi = 0.499*[#   1]+0.143*[#   2]+0.143*[#   3]+0.143*[#   4]+
    |psi|^2 = 0.929
==== e(   5) =    23.11626 eV ==== 
     psi = 0.010*[#   2]+0.010*[#   3]+0.010*[#   4]+
    |psi|^2 = 0.031
==== e(   6) =    24.54677 eV ==== 
     psi = 0.035*[#   2]+0.035*[#   3]+0.035*[#   4]+0.006*[#   1]+
    |psi|^2 = 0.110

 k =   0.7000000000  0.3500000000  0.0000000000
==== e(   1) =     3.09200 eV ==== 
     psi = 0.282*[#   1]+0.238*[#   2]+0.238*[#   3]+0.238*[#   4]+
    |psi|^2 = 0.996
==== e(   2) =    10.34502 eV ==== 
     psi = 0.313*[#   2]+0.313*[#   3]+0.313*[#   4]+
    |psi|^2 = 0.939
==== e(   3) =    11.94366 eV ==== 
     psi = 0.320*[#   1]+0.201*[#   2]+0.201*[#   3]+0.201*[#   4]+
    |psi|^2 = 0.924
==== e(   4) =    13.92436 eV ==== 
     psi = 0.364*[#   1]+0.161*[#   2]+0.161*[#   3]+0.161*[#   4]+
    |psi|^2 = 0.848
==== e(   5) =    22.36048 eV ==== 
     psi = 0.015*[#   2]+0.015*[#   3]+0.015*[#   4]+
    |psi|^2 = 0.044
==== e(   6) =    24.00371 eV ==== 
     psi = 0.050*[#   2]+0.050*[#   3]+0.050*[#   4]+0.016*[#   1]+
    |psi|^2 = 0.167

 k =   0.6000000000  0.3000000000  0.0000000000
==== e(   1) =     1.61364 eV ==== 
     psi = 0.294*[#   1]+0.234*[#   2]+0.234*[#   3]+0.234*[#   4]+
    |psi|^2 = 0.996
==== e(   2) =    11.53332 eV ==== 
     psi = 0.301*[#   2]+0.301*[#   3]+0.301*[#   4]+
    |psi|^2 = 0.903
==== e(   3) =    13.12738 eV ==== 
     psi = 0.369*[#   1]+0.182*[#   2]+0.182*[#   3]+0.182*[#   4]+
    |psi|^2 = 0.915
==== e(   4) =    15.89607 eV ==== 
     psi = 0.281*[#   1]+0.148*[#   2]+0.148*[#   3]+0.148*[#   4]+
    |psi|^2 = 0.725
==== e(   5) =    21.82635 eV ==== 
     psi = 0.020*[#   2]+0.020*[#   3]+0.020*[#   4]+
    |psi|^2 = 0.061
==== e(   6) =    23.58790 eV ==== 
     psi = 0.075*[#   2]+0.075*[#   3]+0.075*[#   4]+0.034*[#   1]+
    |psi|^2 = 0.259

 k =   0.5000000000  0.2500000000  0.0000000000
==== e(   1) =     0.34978 eV ==== 
     psi = 0.315*[#   1]+0.227*[#   2]+0.227*[#   3]+0.227*[#   4]+
    |psi|^2 = 0.996
==== e(   2) =    12.93192 eV ==== 
     psi = 0.283*[#   2]+0.283*[#   3]+0.283*[#   4]+
    |psi|^2 = 0.848
==== e(   3) =    14.46891 eV ==== 
     psi = 0.389*[#   1]+0.169*[#   2]+0.169*[#   3]+0.169*[#   4]+
    |psi|^2 = 0.895
==== e(   4) =    18.05243 eV ==== 
     psi = 0.206*[#   1]+0.121*[#   2]+0.121*[#   3]+0.121*[#   4]+
    |psi|^2 = 0.570
==== e(   5) =    21.47354 eV ==== 
     psi = 0.028*[#   2]+0.028*[#   3]+0.028*[#   4]+
    |psi|^2 = 0.084
==== e(   6) =    23.31488 eV ==== 
     psi = 0.106*[#   2]+0.106*[#   3]+0.106*[#   4]+0.059*[#   1]+
    |psi|^2 = 0.377

 k =   0.4000000000  0.2000000000  0.0000000000
==== e(   1) =    -0.69309 eV ==== 
     psi = 0.363*[#   1]+0.211*[#   2]+0.211*[#   3]+0.211*[#   4]+
    |psi|^2 = 0.995
==== e(   2) =    14.54207 eV ==== 
     psi = 0.255*[#   2]+0.255*[#   3]+0.255*[#   4]+
    |psi|^2 = 0.764
==== e(   3) =    15.94973 eV ==== 
     psi = 0.371*[#   1]+0.161*[#   2]+0.161*[#   3]+0.161*[#   4]+
    |psi|^2 = 0.855
==== e(   4) =    20.35836 eV ==== 
     psi = 0.141*[#   1]+0.100*[#   2]+0.100*[#   3]+0.100*[#   4]+
    |psi|^2 = 0.441
==== e(   5) =    21.31898 eV ==== 
     psi = 0.036*[#   2]+0.036*[#   3]+0.036*[#   4]+
    |psi|^2 = 0.108
==== e(   6) =    23.21771 eV ==== 
     psi = 0.131*[#   2]+0.131*[#   3]+0.131*[#   4]+0.079*[#   1]+
    |psi|^2 = 0.472

 k =   0.3000000000  0.1500000000  0.0000000000
==== e(   1) =    -1.50973 eV ==== 
     psi = 0.459*[#   1]+0.179*[#   2]+0.179*[#   3]+0.179*[#   4]+
    |psi|^2 = 0.995
==== e(   2) =    16.35487 eV ==== 
     psi = 0.215*[#   2]+0.215*[#   3]+0.215*[#   4]+
    |psi|^2 = 0.644
==== e(   3) =    17.53923 eV ==== 
     psi = 0.302*[#   1]+0.161*[#   2]+0.161*[#   3]+0.161*[#   4]+
    |psi|^2 = 0.784
==== e(   4) =    21.34932 eV ==== 
     psi = 0.042*[#   2]+0.042*[#   3]+0.042*[#   4]+
    |psi|^2 = 0.125
==== e(   5) =    22.61648 eV ==== 
     psi = 0.175*[#   2]+0.175*[#   3]+0.175*[#   4]+0.154*[#   1]+
    |psi|^2 = 0.680
==== e(   6) =    23.44773 eV ==== 
     psi = 0.063*[#   2]+0.063*[#   3]+0.063*[#   4]+0.027*[#   1]+
    |psi|^2 = 0.215

 k =   0.2000000000  0.1000000000  0.0000000000
==== e(   1) =    -2.09588 eV ==== 
     psi = 0.626*[#   1]+0.123*[#   2]+0.123*[#   3]+0.123*[#   4]+
    |psi|^2 = 0.995
==== e(   2) =    18.34734 eV ==== 
     psi = 0.164*[#   2]+0.164*[#   3]+0.164*[#   4]+
    |psi|^2 = 0.492
==== e(   3) =    19.19633 eV ==== 
     psi = 0.178*[#   1]+0.161*[#   2]+0.161*[#   3]+0.161*[#   4]+
    |psi|^2 = 0.663
==== e(   4) =    21.53132 eV ==== 
     psi = 0.038*[#   2]+0.038*[#   3]+0.038*[#   4]+
    |psi|^2 = 0.113
==== e(   5) =    23.24356 eV ==== 
     psi = 0.248*[#   2]+0.248*[#   3]+0.248*[#   4]+0.129*[#   1]+
    |psi|^2 = 0.874
==== e(   6) =    25.47489 eV ==== 
     psi = 0.008*[#   2]+0.008*[#   3]+0.008*[#   4]+0.006*[#   1]+
    |psi|^2 = 0.029

 k =   0.1000000000  0.0500000000  0.0000000000
==== e(   1) =    -2.44867 eV ==== 
     psi = 0.858*[#   1]+0.046*[#   2]+0.046*[#   3]+0.046*[#   4]+
    |psi|^2 = 0.996
==== e(   2) =    20.45224 eV ==== 
     psi = 0.104*[#   2]+0.104*[#   3]+0.104*[#   4]+
    |psi|^2 = 0.312
==== e(   3) =    20.84677 eV ==== 
     psi = 0.130*[#   2]+0.130*[#   3]+0.130*[#   4]+0.042*[#   1]+
    |psi|^2 = 0.431
==== e(   4) =    21.79202 eV ==== 
     psi = 0.018*[#   2]+0.018*[#   3]+0.018*[#   4]+
    |psi|^2 = 0.053
==== e(   5) =    23.44113 eV ==== 
     psi = 0.281*[#   2]+0.281*[#   3]+0.281*[#   4]+0.056*[#   1]+
    |psi|^2 = 0.898
==== e(   6) =    24.41792 eV ==== 
     psi = 0.182*[#   2]+0.182*[#   3]+0.182*[#   4]+
    |psi|^2 = 0.547

 k =   0.0000000000  0.0000000000  0.0000000000
==== e(   1) =    -2.56647 eV ==== 
     psi = 0.996*[#   1]+
    |psi|^2 = 0.996
==== e(   2) =    21.93364 eV ==== 
     psi = 
    |psi|^2 = 0.000
==== e(   3) =    21.93364 eV ==== 
     psi = 
    |psi|^2 = 0.000
==== e(   4) =    21.93364 eV ==== 
     psi = 
    |psi|^2 = 0.000
==== e(   5) =    23.51637 eV ==== 
     psi = 0.307*[#   2]+0.307*[#   3]+0.307*[#   4]+
    |psi|^2 = 0.921
==== e(   6) =    23.51637 eV ==== 
     psi = 0.307*[#   2]+0.307*[#   3]+0.307*[#   4]+
    |psi|^2 = 0.921

 k =   0.1000000000  0.0000000000  0.0000000000
==== e(   1) =    -2.47222 eV ==== 
     psi = 0.882*[#   1]+0.038*[#   2]+0.038*[#   3]+0.038*[#   4]+
    |psi|^2 = 0.996
==== e(   2) =    21.05563 eV ==== 
     psi = 0.126*[#   2]+0.126*[#   3]+0.126*[#   4]+
    |psi|^2 = 0.378
==== e(   3) =    21.05563 eV ==== 
     psi = 0.126*[#   2]+0.126*[#   3]+0.126*[#   4]+
    |psi|^2 = 0.378
==== e(   4) =    21.27699 eV ==== 
     psi = 
    |psi|^2 = 0.000
==== e(   5) =    23.28612 eV ==== 
     psi = 0.263*[#   2]+0.263*[#   3]+0.263*[#   4]+0.109*[#   1]+
    |psi|^2 = 0.897
==== e(   6) =    24.52451 eV ==== 
     psi = 0.184*[#   2]+0.184*[#   3]+0.184*[#   4]+
    |psi|^2 = 0.551

 k =   0.2000000000  0.0000000000  0.0000000000
==== e(   1) =    -2.18990 eV ==== 
     psi = 0.669*[#   1]+0.109*[#   2]+0.109*[#   3]+0.109*[#   4]+
    |psi|^2 = 0.995
==== e(   2) =    19.80751 eV ==== 
     psi = 0.203*[#   2]+0.203*[#   3]+0.203*[#   4]+
    |psi|^2 = 0.608
==== e(   3) =    19.80751 eV ==== 
     psi = 0.203*[#   2]+0.203*[#   3]+0.203*[#   4]+
    |psi|^2 = 0.608
==== e(   4) =    20.03360 eV ==== 
     psi = 
    |psi|^2 = 0.000
==== e(   5) =    22.67820 eV ==== 
     psi = 0.294*[#   1]+0.186*[#   2]+0.186*[#   3]+0.186*[#   4]+
    |psi|^2 = 0.852
==== e(   6) =    25.40046 eV ==== 
     psi = 0.016*[#   1]+0.009*[#   2]+0.009*[#   3]+0.009*[#   4]+
    |psi|^2 = 0.043

 k =   0.3000000000  0.0000000000  0.0000000000
==== e(   1) =    -1.72051 eV ==== 
     psi = 0.497*[#   1]+0.166*[#   2]+0.166*[#   3]+0.166*[#   4]+
    |psi|^2 = 0.995
==== e(   2) =    18.64198 eV ==== 
     psi = 0.249*[#   2]+0.249*[#   3]+0.249*[#   4]+
    |psi|^2 = 0.746
==== e(   3) =    18.64198 eV ==== 
     psi = 0.249*[#   2]+0.249*[#   3]+0.249*[#   4]+
    |psi|^2 = 0.746
==== e(   4) =    18.75080 eV ==== 
     psi = 
    |psi|^2 = 0.000
==== e(   5) =    21.88455 eV ==== 
     psi = 0.440*[#   1]+0.134*[#   2]+0.134*[#   3]+0.134*[#   4]+
    |psi|^2 = 0.841
==== e(   6) =    22.75810 eV ==== 
     psi = 0.019*[#   1]+0.006*[#   2]+0.006*[#   3]+0.006*[#   4]+
    |psi|^2 = 0.036

 k =   0.4000000000  0.0000000000  0.0000000000
==== e(   1) =    -1.06591 eV ==== 
     psi = 0.387*[#   1]+0.203*[#   2]+0.203*[#   3]+0.203*[#   4]+
    |psi|^2 = 0.995
==== e(   2) =    17.61084 eV ==== 
     psi = 
    |psi|^2 = 0.000
==== e(   3) =    17.63180 eV ==== 
     psi = 0.279*[#   2]+0.279*[#   3]+0.279*[#   4]+
    |psi|^2 = 0.837
==== e(   4) =    17.63180 eV ==== 
     psi = 0.279*[#   2]+0.279*[#   3]+0.279*[#   4]+
    |psi|^2 = 0.837
==== e(   5) =    20.07319 eV ==== 
     psi = 0.193*[#   1]+0.037*[#   2]+0.037*[#   3]+0.037*[#   4]+
    |psi|^2 = 0.305
==== e(   6) =    21.11749 eV ==== 
     psi = 0.368*[#   1]+0.071*[#   2]+0.071*[#   3]+0.071*[#   4]+
    |psi|^2 = 0.581

 k =   0.5000000000  0.0000000000  0.0000000000
==== e(   1) =    -0.22886 eV ==== 
     psi = 0.325*[#   1]+0.223*[#   2]+0.223*[#   3]+0.223*[#   4]+
    |psi|^2 = 0.995
==== e(   2) =    16.61458 eV ==== 
     psi = 
    |psi|^2 = 0.000
==== e(   3) =    16.77210 eV ==== 
     psi = 0.299*[#   2]+0.299*[#   3]+0.299*[#   4]+
    |psi|^2 = 0.897
==== e(   4) =    16.77210 eV ==== 
     psi = 0.299*[#   2]+0.299*[#   3]+0.299*[#   4]+
    |psi|^2 = 0.897
==== e(   5) =    17.52771 eV ==== 
     psi = 0.254*[#   1]+0.040*[#   2]+0.040*[#   3]+0.040*[#   4]+
    |psi|^2 = 0.375
==== e(   6) =    20.33831 eV ==== 
     psi = 0.377*[#   1]+0.054*[#   2]+0.054*[#   3]+0.054*[#   4]+
    |psi|^2 = 0.538

 k =   0.6000000000  0.0000000000  0.0000000000
==== e(   1) =     0.78672 eV ==== 
     psi = 0.297*[#   1]+0.233*[#   2]+0.233*[#   3]+0.233*[#   4]+
    |psi|^2 = 0.996
==== e(   2) =    15.09180 eV ==== 
     psi = 0.356*[#   1]+0.053*[#   2]+0.053*[#   3]+0.053*[#   4]+
    |psi|^2 = 0.516
==== e(   3) =    15.79073 eV ==== 
     psi = 
    |psi|^2 = 0.000
==== e(   4) =    16.06683 eV ==== 
     psi = 0.313*[#   2]+0.313*[#   3]+0.313*[#   4]+
    |psi|^2 = 0.938
==== e(   5) =    16.06683 eV ==== 
     psi = 0.313*[#   2]+0.313*[#   3]+0.313*[#   4]+
    |psi|^2 = 0.938
==== e(   6) =    19.65907 eV ==== 
     psi = 0.317*[#   1]+0.037*[#   2]+0.037*[#   3]+0.037*[#   4]+
    |psi|^2 = 0.427

 k =   0.7000000000  0.0000000000  0.0000000000
==== e(   1) =     1.97685 eV ==== 
     psi = 0.291*[#   1]+0.235*[#   2]+0.235*[#   3]+0.235*[#   4]+
    |psi|^2 = 0.995
==== e(   2) =    12.79102 eV ==== 
     psi = 0.449*[#   1]+0.070*[#   2]+0.070*[#   3]+0.070*[#   4]+
    |psi|^2 = 0.658
==== e(   3) =    15.14606 eV ==== 
     psi = 
    |psi|^2 = 0.000
==== e(   4) =    15.51742 eV ==== 
     psi = 0.322*[#   2]+0.322*[#   3]+0.322*[#   4]+
    |psi|^2 = 0.965
==== e(   5) =    15.51742 eV ==== 
     psi = 0.322*[#   2]+0.322*[#   3]+0.322*[#   4]+
    |psi|^2 = 0.965
==== e(   6) =    19.10669 eV ==== 
     psi = 0.243*[#   1]+0.023*[#   2]+0.023*[#   3]+0.023*[#   4]+
    |psi|^2 = 0.311

 k =   0.8000000000  0.0000000000  0.0000000000
==== e(   1) =     3.32777 eV ==== 
     psi = 0.289*[#   1]+0.234*[#   2]+0.234*[#   3]+0.234*[#   4]+
    |psi|^2 = 0.992
==== e(   2) =    10.64087 eV ==== 
     psi = 0.520*[#   1]+0.085*[#   2]+0.085*[#   3]+0.085*[#   4]+
    |psi|^2 = 0.774
==== e(   3) =    14.68393 eV ==== 
     psi = 
    |psi|^2 = 0.000
==== e(   4) =    15.12434 eV ==== 
     psi = 0.327*[#   2]+0.327*[#   3]+0.327*[#   4]+
    |psi|^2 = 0.982
==== e(   5) =    15.12434 eV ==== 
     psi = 0.327*[#   2]+0.327*[#   3]+0.327*[#   4]+
    |psi|^2 = 0.982
==== e(   6) =    18.69625 eV ==== 
     psi = 0.181*[#   1]+0.011*[#   2]+0.011*[#   3]+0.011*[#   4]+
    |psi|^2 = 0.215

 k =   0.9000000000  0.0000000000  0.0000000000
==== e(   1) =     4.80225 eV ==== 
     psi = 0.248*[#   2]+0.248*[#   3]+0.248*[#   4]+0.244*[#   1]+
    |psi|^2 = 0.987
==== e(   2) =     8.68311 eV ==== 
     psi = 0.608*[#   1]+0.082*[#   2]+0.082*[#   3]+0.082*[#   4]+
    |psi|^2 = 0.853
==== e(   3) =    14.40613 eV ==== 
     psi = 
    |psi|^2 = 0.000
==== e(   4) =    14.88579 eV ==== 
     psi = 0.330*[#   2]+0.330*[#   3]+0.330*[#   4]+
    |psi|^2 = 0.990
==== e(   5) =    14.88579 eV ==== 
     psi = 0.330*[#   2]+0.330*[#   3]+0.330*[#   4]+
    |psi|^2 = 0.990
==== e(   6) =    18.44161 eV ==== 
     psi = 0.141*[#   1]+0.003*[#   2]+0.003*[#   3]+0.003*[#   4]+
    |psi|^2 = 0.151

 k =   1.0000000000  0.0000000000  0.0000000000
==== e(   1) =     5.92662 eV ==== 
     psi = 0.333*[#   2]+0.333*[#   3]+0.333*[#   4]+
    |psi|^2 = 0.999
==== e(   2) =     7.39973 eV ==== 
     psi = 0.866*[#   1]+
    |psi|^2 = 0.866
==== e(   3) =    14.31519 eV ==== 
     psi = 
    |psi|^2 = 0.000
==== e(   4) =    14.80810 eV ==== 
     psi = 0.331*[#   2]+0.331*[#   3]+0.331*[#   4]+
    |psi|^2 = 0.993
==== e(   5) =    14.80810 eV ==== 
     psi = 0.331*[#   2]+0.331*[#   3]+0.331*[#   4]+
    |psi|^2 = 0.993
==== e(   6) =    18.35678 eV ==== 
     psi = 0.128*[#   1]+
    |psi|^2 = 0.128

 k =   1.0000000000  0.0500000000  0.0000000000
==== e(   1) =     5.94812 eV ==== 
     psi = 0.333*[#   2]+0.333*[#   3]+0.333*[#   4]+
    |psi|^2 = 0.999
==== e(   2) =     7.42214 eV ==== 
     psi = 0.857*[#   1]+0.004*[#   2]+0.004*[#   3]+0.004*[#   4]+
    |psi|^2 = 0.869
==== e(   3) =    13.68463 eV ==== 
     psi = 0.158*[#   2]+0.158*[#   3]+0.158*[#   4]+
    |psi|^2 = 0.474
==== e(   4) =    14.62925 eV ==== 
     psi = 0.319*[#   2]+0.319*[#   3]+0.319*[#   4]+0.025*[#   1]+
    |psi|^2 = 0.980
==== e(   5) =    15.47969 eV ==== 
     psi = 0.173*[#   2]+0.173*[#   3]+0.173*[#   4]+
    |psi|^2 = 0.519
==== e(   6) =    18.56093 eV ==== 
     psi = 0.113*[#   1]+0.008*[#   2]+0.008*[#   3]+0.008*[#   4]+
    |psi|^2 = 0.137

 k =   1.0000000000  0.1000000000  0.0000000000
==== e(   1) =     6.01229 eV ==== 
     psi = 0.333*[#   2]+0.333*[#   3]+0.333*[#   4]+
    |psi|^2 = 0.998
==== e(   2) =     7.48886 eV ==== 
     psi = 0.830*[#   1]+0.015*[#   2]+0.015*[#   3]+0.015*[#   4]+
    |psi|^2 = 0.876
==== e(   3) =    12.90275 eV ==== 
     psi = 0.216*[#   2]+0.216*[#   3]+0.216*[#   4]+
    |psi|^2 = 0.649
==== e(   4) =    14.19319 eV ==== 
     psi = 0.295*[#   2]+0.295*[#   3]+0.295*[#   4]+0.080*[#   1]+
    |psi|^2 = 0.964
==== e(   5) =    16.38844 eV ==== 
     psi = 0.115*[#   2]+0.115*[#   3]+0.115*[#   4]+
    |psi|^2 = 0.345
==== e(   6) =    19.09941 eV ==== 
     psi = 0.084*[#   1]+0.020*[#   2]+0.020*[#   3]+0.020*[#   4]+
    |psi|^2 = 0.144

 k =   1.0000000000  0.1500000000  0.0000000000
==== e(   1) =     6.12016 eV ==== 
     psi = 0.333*[#   2]+0.333*[#   3]+0.333*[#   4]+
    |psi|^2 = 0.998
==== e(   2) =     7.60205 eV ==== 
     psi = 0.788*[#   1]+0.033*[#   2]+0.033*[#   3]+0.033*[#   4]+
    |psi|^2 = 0.886
==== e(   3) =    12.15352 eV ==== 
     psi = 0.253*[#   2]+0.253*[#   3]+0.253*[#   4]+
    |psi|^2 = 0.760
==== e(   4) =    13.63497 eV ==== 
     psi = 0.271*[#   2]+0.271*[#   3]+0.271*[#   4]+0.147*[#   1]+
    |psi|^2 = 0.959
==== e(   5) =    17.35048 eV ==== 
     psi = 0.078*[#   2]+0.078*[#   3]+0.078*[#   4]+
    |psi|^2 = 0.234
==== e(   6) =    19.82288 eV ==== 
     psi = 0.059*[#   1]+0.025*[#   2]+0.025*[#   3]+0.025*[#   4]+
    |psi|^2 = 0.136

 k =   1.0000000000  0.2000000000  0.0000000000
==== e(   1) =     6.26994 eV ==== 
     psi = 0.332*[#   2]+0.332*[#   3]+0.332*[#   4]+
    |psi|^2 = 0.997
==== e(   2) =     7.75771 eV ==== 
     psi = 0.733*[#   1]+0.055*[#   2]+0.055*[#   3]+0.055*[#   4]+
    |psi|^2 = 0.899
==== e(   3) =    11.44005 eV ==== 
     psi = 0.279*[#   2]+0.279*[#   3]+0.279*[#   4]+
    |psi|^2 = 0.838
==== e(   4) =    13.03239 eV ==== 
     psi = 0.247*[#   2]+0.247*[#   3]+0.247*[#   4]+0.219*[#   1]+
    |psi|^2 = 0.961
==== e(   5) =    18.35675 eV ==== 
     psi = 0.052*[#   2]+0.052*[#   3]+0.052*[#   4]+
    |psi|^2 = 0.157
==== e(   6) =    20.64863 eV ==== 
     psi = 0.042*[#   1]+0.025*[#   2]+0.025*[#   3]+0.025*[#   4]+
    |psi|^2 = 0.118

 k =   1.0000000000  0.2500000000  0.0000000000
==== e(   1) =     6.46386 eV ==== 
     psi = 0.332*[#   2]+0.332*[#   3]+0.332*[#   4]+
    |psi|^2 = 0.996
==== e(   2) =     7.95842 eV ==== 
     psi = 0.666*[#   1]+0.082*[#   2]+0.082*[#   3]+0.082*[#   4]+
    |psi|^2 = 0.911
==== e(   3) =    10.77327 eV ==== 
     psi = 0.297*[#   2]+0.297*[#   3]+0.297*[#   4]+
    |psi|^2 = 0.891
==== e(   4) =    12.43079 eV ==== 
     psi = 0.298*[#   1]+0.222*[#   2]+0.222*[#   3]+0.222*[#   4]+
    |psi|^2 = 0.965
==== e(   5) =    19.40543 eV ==== 
     psi = 0.035*[#   2]+0.035*[#   3]+0.035*[#   4]+
    |psi|^2 = 0.104
==== e(   6) =    21.54271 eV ==== 
     psi = 0.029*[#   1]+0.023*[#   2]+0.023*[#   3]+0.023*[#   4]+
    |psi|^2 = 0.099

 k =   1.0000000000  0.3000000000  0.0000000000
==== e(   1) =     6.70078 eV ==== 
     psi = 0.332*[#   2]+0.332*[#   3]+0.332*[#   4]+
    |psi|^2 = 0.995
==== e(   2) =     8.20020 eV ==== 
     psi = 0.587*[#   1]+0.111*[#   2]+0.111*[#   3]+0.111*[#   4]+
    |psi|^2 = 0.922
==== e(   3) =    10.14903 eV ==== 
     psi = 0.309*[#   2]+0.309*[#   3]+0.309*[#   4]+
    |psi|^2 = 0.927
==== e(   4) =    11.84787 eV ==== 
     psi = 0.384*[#   1]+0.195*[#   2]+0.195*[#   3]+0.195*[#   4]+
    |psi|^2 = 0.969
==== e(   5) =    20.49495 eV ==== 
     psi = 0.023*[#   2]+0.023*[#   3]+0.023*[#   4]+
    |psi|^2 = 0.069
==== e(   6) =    22.47950 eV ==== 
     psi = 0.021*[#   1]+0.020*[#   2]+0.020*[#   3]+0.020*[#   4]+
    |psi|^2 = 0.082

 k =   1.0000000000  0.3500000000  0.0000000000
==== e(   1) =     6.98073 eV ==== 
     psi = 0.331*[#   2]+0.331*[#   3]+0.331*[#   4]+
    |psi|^2 = 0.993
==== e(   2) =     8.47889 eV ==== 
     psi = 0.492*[#   1]+0.146*[#   2]+0.146*[#   3]+0.146*[#   4]+
    |psi|^2 = 0.930
==== e(   3) =     9.56760 eV ==== 
     psi = 0.317*[#   2]+0.317*[#   3]+0.317*[#   4]+
    |psi|^2 = 0.951
==== e(   4) =    11.29742 eV ==== 
     psi = 0.485*[#   1]+0.162*[#   2]+0.162*[#   3]+0.162*[#   4]+
    |psi|^2 = 0.972
==== e(   5) =    21.62413 eV ==== 
     psi = 0.015*[#   2]+0.015*[#   3]+0.015*[#   4]+
    |psi|^2 = 0.046
==== e(   6) =    23.44204 eV ==== 
     psi = 0.018*[#   2]+0.018*[#   3]+0.018*[#   4]+0.014*[#   1]+
    |psi|^2 = 0.068

 k =   1.0000000000  0.4500000000  0.0000000000
==== e(   1) =     7.66981 eV ==== 
     psi = 0.329*[#   2]+0.329*[#   3]+0.329*[#   4]+
    |psi|^2 = 0.988
==== e(   2) =     8.53159 eV ==== 
     psi = 0.326*[#   2]+0.326*[#   3]+0.326*[#   4]+
    |psi|^2 = 0.977
==== e(   3) =     9.08251 eV ==== 
     psi = 0.254*[#   2]+0.254*[#   3]+0.254*[#   4]+0.175*[#   1]+
    |psi|^2 = 0.937
==== e(   4) =    10.37658 eV ==== 
     psi = 0.807*[#   1]+0.057*[#   2]+0.057*[#   3]+0.057*[#   4]+
    |psi|^2 = 0.978
==== e(   5) =    23.99351 eV ==== 
     psi = 0.007*[#   2]+0.007*[#   3]+0.007*[#   4]+
    |psi|^2 = 0.021
==== e(   6) =    25.30850 eV ==== 
     psi = 0.018*[#   2]+0.018*[#   3]+0.018*[#   4]+0.004*[#   1]+
    |psi|^2 = 0.057

 k =   1.0000000000  0.5000000000  0.0000000000
==== e(   1) =     8.07874 eV ==== 
     psi = 0.328*[#   2]+0.328*[#   3]+0.328*[#   4]+
    |psi|^2 = 0.983
==== e(   2) =     8.07874 eV ==== 
     psi = 0.328*[#   2]+0.328*[#   3]+0.328*[#   4]+
    |psi|^2 = 0.983
==== e(   3) =     9.23917 eV ==== 
     psi = 0.311*[#   2]+0.311*[#   3]+0.311*[#   4]+
    |psi|^2 = 0.934
==== e(   4) =    10.17928 eV ==== 
     psi = 0.983*[#   1]+
    |psi|^2 = 0.983
==== e(   5) =    25.23043 eV ==== 
     psi = 0.005*[#   2]+0.005*[#   3]+0.005*[#   4]+
    |psi|^2 = 0.015
==== e(   6) =    25.23043 eV ==== 
     psi = 0.005*[#   2]+0.005*[#   3]+0.005*[#   4]+
    |psi|^2 = 0.015

 k =   0.9500000000  0.5000000000  0.0500000000
==== e(   1) =     7.65136 eV ==== 
     psi = 0.328*[#   2]+0.328*[#   3]+0.328*[#   4]+
    |psi|^2 = 0.983
==== e(   2) =     7.79088 eV ==== 
     psi = 0.278*[#   2]+0.278*[#   3]+0.278*[#   4]+0.150*[#   1]+
    |psi|^2 = 0.984
==== e(   3) =     9.75843 eV ==== 
     psi = 0.309*[#   2]+0.309*[#   3]+0.309*[#   4]+
    |psi|^2 = 0.928
==== e(   4) =    10.55100 eV ==== 
     psi = 0.832*[#   1]+0.050*[#   2]+0.050*[#   3]+0.050*[#   4]+
    |psi|^2 = 0.981
==== e(   5) =    24.76026 eV ==== 
     psi = 0.015*[#   2]+0.015*[#   3]+0.015*[#   4]+
    |psi|^2 = 0.046
==== e(   6) =    25.01273 eV ==== 
     psi = 0.004*[#   2]+0.004*[#   3]+0.004*[#   4]+0.002*[#   1]+
    |psi|^2 = 0.014

 k =   0.9000000000  0.5000000000  0.1000000000
==== e(   1) =     6.98611 eV ==== 
     psi = 0.329*[#   2]+0.329*[#   3]+0.329*[#   4]+
    |psi|^2 = 0.987
==== e(   2) =     7.21745 eV ==== 
     psi = 0.330*[#   1]+0.218*[#   2]+0.218*[#   3]+0.218*[#   4]+
    |psi|^2 = 0.984
==== e(   3) =    10.68525 eV ==== 
     psi = 0.302*[#   2]+0.302*[#   3]+0.302*[#   4]+
    |psi|^2 = 0.905
==== e(   4) =    11.36147 eV ==== 
     psi = 0.652*[#   1]+0.108*[#   2]+0.108*[#   3]+0.108*[#   4]+
    |psi|^2 = 0.977
==== e(   5) =    24.15192 eV ==== 
     psi = 0.025*[#   2]+0.025*[#   3]+0.025*[#   4]+
    |psi|^2 = 0.074
==== e(   6) =    24.53183 eV ==== 
     psi = 0.005*[#   1]+0.003*[#   2]+0.003*[#   3]+0.003*[#   4]+
    |psi|^2 = 0.012

 k =   0.8500000000  0.5000000000  0.1500000000
==== e(   1) =     6.35693 eV ==== 
     psi = 0.330*[#   2]+0.330*[#   3]+0.330*[#   4]+
    |psi|^2 = 0.991
==== e(   2) =     6.61586 eV ==== 
     psi = 0.455*[#   1]+0.176*[#   2]+0.176*[#   3]+0.176*[#   4]+
    |psi|^2 = 0.983
==== e(   3) =    11.74712 eV ==== 
     psi = 0.289*[#   2]+0.289*[#   3]+0.289*[#   4]+
    |psi|^2 = 0.868
==== e(   4) =    12.35493 eV ==== 
     psi = 0.526*[#   1]+0.148*[#   2]+0.148*[#   3]+0.148*[#   4]+
    |psi|^2 = 0.970
==== e(   5) =    23.59908 eV ==== 
     psi = 0.037*[#   2]+0.037*[#   3]+0.037*[#   4]+
    |psi|^2 = 0.110
==== e(   6) =    23.99576 eV ==== 
     psi = 0.008*[#   1]+0.001*[#   2]+0.001*[#   3]+0.001*[#   4]+
    |psi|^2 = 0.012

 k =   0.8000000000  0.5000000000  0.2000000000
==== e(   1) =     5.80198 eV ==== 
     psi = 0.331*[#   2]+0.331*[#   3]+0.331*[#   4]+
    |psi|^2 = 0.994
==== e(   2) =     6.06330 eV ==== 
     psi = 0.553*[#   1]+0.143*[#   2]+0.143*[#   3]+0.143*[#   4]+
    |psi|^2 = 0.983
==== e(   3) =    12.90728 eV ==== 
     psi = 0.272*[#   2]+0.272*[#   3]+0.272*[#   4]+
    |psi|^2 = 0.815
==== e(   4) =    13.45484 eV ==== 
     psi = 0.426*[#   1]+0.178*[#   2]+0.178*[#   3]+0.178*[#   4]+
    |psi|^2 = 0.960
==== e(   5) =    23.10641 eV ==== 
     psi = 0.053*[#   2]+0.053*[#   3]+0.053*[#   4]+
    |psi|^2 = 0.159
==== e(   6) =    23.48020 eV ==== 
     psi = 0.011*[#   1]+
    |psi|^2 = 0.012

 k =   0.7500000000  0.5000000000  0.2500000000
==== e(   1) =     5.32798 eV ==== 
     psi = 0.332*[#   2]+0.332*[#   3]+0.332*[#   4]+
    |psi|^2 = 0.996
==== e(   2) =     5.57964 eV ==== 
     psi = 0.640*[#   1]+0.114*[#   2]+0.114*[#   3]+0.114*[#   4]+
    |psi|^2 = 0.982
==== e(   3) =    14.15275 eV ==== 
     psi = 0.249*[#   2]+0.249*[#   3]+0.249*[#   4]+
    |psi|^2 = 0.748
==== e(   4) =    14.63394 eV ==== 
     psi = 0.337*[#   1]+0.203*[#   2]+0.203*[#   3]+0.203*[#   4]+
    |psi|^2 = 0.946
==== e(   5) =    22.69207 eV ==== 
     psi = 0.074*[#   2]+0.074*[#   3]+0.074*[#   4]+
    |psi|^2 = 0.222
==== e(   6) =    23.01790 eV ==== 
     psi = 0.014*[#   1]+
    |psi|^2 = 0.015

 k =   0.7000000000  0.5000000000  0.3000000000
==== e(   1) =     4.93798 eV ==== 
     psi = 0.332*[#   2]+0.332*[#   3]+0.332*[#   4]+
    |psi|^2 = 0.997
==== e(   2) =     5.17659 eV ==== 
     psi = 0.725*[#   1]+0.085*[#   2]+0.085*[#   3]+0.085*[#   4]+
    |psi|^2 = 0.981
==== e(   3) =    15.47386 eV ==== 
     psi = 0.222*[#   2]+0.222*[#   3]+0.222*[#   4]+
    |psi|^2 = 0.667
==== e(   4) =    15.87082 eV ==== 
     psi = 0.250*[#   1]+0.225*[#   2]+0.225*[#   3]+0.225*[#   4]+
    |psi|^2 = 0.924
==== e(   5) =    22.34200 eV ==== 
     psi = 0.100*[#   2]+0.100*[#   3]+0.100*[#   4]+
    |psi|^2 = 0.299
==== e(   6) =    22.61164 eV ==== 
     psi = 0.019*[#   1]+0.001*[#   2]+0.001*[#   3]+0.001*[#   4]+
    |psi|^2 = 0.023

 k =   0.6500000000  0.5000000000  0.3500000000
==== e(   1) =     4.63434 eV ==== 
     psi = 0.333*[#   2]+0.333*[#   3]+0.333*[#   4]+
    |psi|^2 = 0.998
==== e(   2) =     4.85957 eV ==== 
     psi = 0.810*[#   1]+0.057*[#   2]+0.057*[#   3]+0.057*[#   4]+
    |psi|^2 = 0.980
==== e(   3) =    16.85689 eV ==== 
     psi = 0.194*[#   2]+0.194*[#   3]+0.194*[#   4]+
    |psi|^2 = 0.582
==== e(   4) =    17.14890 eV ==== 
     psi = 0.241*[#   2]+0.241*[#   3]+0.241*[#   4]+0.163*[#   1]+
    |psi|^2 = 0.886
==== e(   5) =    22.04795 eV ==== 
     psi = 0.127*[#   2]+0.127*[#   3]+0.127*[#   4]+
    |psi|^2 = 0.381
==== e(   6) =    22.25819 eV ==== 
     psi = 0.022*[#   1]+0.007*[#   2]+0.007*[#   3]+0.007*[#   4]+
    |psi|^2 = 0.044

 k =   0.6000000000  0.5000000000  0.4000000000
==== e(   1) =     4.41666 eV ==== 
     psi = 0.333*[#   2]+0.333*[#   3]+0.333*[#   4]+
    |psi|^2 = 0.999
==== e(   2) =     4.63149 eV ==== 
     psi = 0.890*[#   1]+0.029*[#   2]+0.029*[#   3]+0.029*[#   4]+
    |psi|^2 = 0.978
==== e(   3) =    18.27111 eV ==== 
     psi = 0.170*[#   2]+0.170*[#   3]+0.170*[#   4]+
    |psi|^2 = 0.510
==== e(   4) =    18.44080 eV ==== 
     psi = 0.246*[#   2]+0.246*[#   3]+0.246*[#   4]+0.082*[#   1]+
    |psi|^2 = 0.818
==== e(   5) =    21.77910 eV ==== 
     psi = 0.151*[#   2]+0.151*[#   3]+0.151*[#   4]+
    |psi|^2 = 0.453
==== e(   6) =    21.92273 eV ==== 
     psi = 0.026*[#   2]+0.026*[#   3]+0.026*[#   4]+0.022*[#   1]+
    |psi|^2 = 0.101

 k =   0.5500000000  0.5000000000  0.4500000000
==== e(   1) =     4.28635 eV ==== 
     psi = 0.333*[#   2]+0.333*[#   3]+0.333*[#   4]+
    |psi|^2 = 0.999
==== e(   2) =     4.49395 eV ==== 
     psi = 0.951*[#   1]+0.008*[#   2]+0.008*[#   3]+0.008*[#   4]+
    |psi|^2 = 0.976
==== e(   3) =    19.63393 eV ==== 
     psi = 0.159*[#   2]+0.159*[#   3]+0.159*[#   4]+
    |psi|^2 = 0.477
==== e(   4) =    19.68644 eV ==== 
     psi = 0.225*[#   2]+0.225*[#   3]+0.225*[#   4]+0.022*[#   1]+
    |psi|^2 = 0.698
==== e(   5) =    21.42270 eV ==== 
     psi = 0.164*[#   2]+0.164*[#   3]+0.164*[#   4]+
    |psi|^2 = 0.491
==== e(   6) =    21.48867 eV ==== 
     psi = 0.076*[#   2]+0.076*[#   3]+0.076*[#   4]+0.012*[#   1]+
    |psi|^2 = 0.240

 k =   0.5000000000  0.5000000000  0.5000000000
==== e(   1) =     4.24292 eV ==== 
     psi = 0.333*[#   2]+0.333*[#   3]+0.333*[#   4]+
    |psi|^2 = 0.999
==== e(   2) =     4.44802 eV ==== 
     psi = 0.975*[#   1]+
    |psi|^2 = 0.975
==== e(   3) =    20.73900 eV ==== 
     psi = 0.323*[#   2]+0.323*[#   3]+0.323*[#   4]+
    |psi|^2 = 0.969
==== e(   4) =    20.73900 eV ==== 
     psi = 0.323*[#   2]+0.323*[#   3]+0.323*[#   4]+
    |psi|^2 = 0.969
==== e(   5) =    20.77979 eV ==== 
     psi = 
    |psi|^2 = 0.000
==== e(   6) =    20.77979 eV ==== 
     psi = 
    |psi|^2 = 0.000

Lowdin Charges: 

     Atom #   1: total charge =   2.9409, s =  0.8982, p =  2.0427, 
     Spilling Parameter:   0.0197
