 Entering Link 1 = C:\G03W\l1.exe PID=      2352.
  
 Copyright (c) 1988,1990,1992,1993,1995,1998,2003, Gaussian, Inc.
                  All Rights Reserved.
  
 This is the Gaussian(R) 03 program.  It is based on the
 the Gaussian(R) 98 system (copyright 1998, Gaussian, Inc.),
 the Gaussian(R) 94 system (copyright 1995, Gaussian, Inc.),
 the Gaussian 92(TM) system (copyright 1992, Gaussian, Inc.),
 the Gaussian 90(TM) system (copyright 1990, Gaussian, Inc.),
 the Gaussian 88(TM) system (copyright 1988, Gaussian, Inc.),
 the Gaussian 86(TM) system (copyright 1986, Carnegie Mellon
 University), and the Gaussian 82(TM) system (copyright 1983,
 Carnegie Mellon University). Gaussian is a federally registered
 trademark of Gaussian, Inc.
  
 This software contains proprietary and confidential information,
 including trade secrets, belonging to Gaussian, Inc.
  
 This software is provided under written license and may be
 used, copied, transmitted, or stored only in accord with that
 written license.
  
 The following legend is applicable only to US Government
 contracts under DFARS:
  
                    RESTRICTED RIGHTS LEGEND
  
 Use, duplication or disclosure by the US Government is subject
 to restrictions as set forth in subparagraph (c)(1)(ii) of the
 Rights in Technical Data and Computer Software clause at DFARS
 252.227-7013.
  
 Gaussian, Inc.
 Carnegie Office Park, Building 6, Pittsburgh, PA 15106 USA
  
 The following legend is applicable only to US Government
 contracts under FAR:
  
                    RESTRICTED RIGHTS LEGEND
  
 Use, reproduction and disclosure by the US Government is subject
 to restrictions as set forth in subparagraph (c) of the
 Commercial Computer Software - Restricted Rights clause at FAR
 52.227-19.
  
 Gaussian, Inc.
 Carnegie Office Park, Building 6, Pittsburgh, PA 15106 USA
  
  
 ---------------------------------------------------------------
 Warning -- This program may not be used in any manner that
 competes with the business of Gaussian, Inc. or will provide
 assistance to any competitor of Gaussian, Inc.  The licensee
 of this program is prohibited from giving any competitor of
 Gaussian, Inc. access to this program.  By using this program,
 the user acknowledges that Gaussian, Inc. is engaged in the
 business of creating and licensing software in the field of
 computational chemistry and represents and warrants to the
 licensee that it is not a competitor of Gaussian, Inc. and that
 it will not use this program in any manner prohibited above.
 ---------------------------------------------------------------
  

 Cite this work as:
 Gaussian 03, Revision B.03,
 M. J. Frisch, G. W. Trucks, H. B. Schlegel, G. E. Scuseria, 
 M. A. Robb, J. R. Cheeseman, J. A. Montgomery, Jr., T. Vreven, 
 K. N. Kudin, J. C. Burant, J. M. Millam, S. S. Iyengar, J. Tomasi, 
 V. Barone, B. Mennucci, M. Cossi, G. Scalmani, N. Rega, 
 G. A. Petersson, H. Nakatsuji, M. Hada, M. Ehara, K. Toyota, 
 R. Fukuda, J. Hasegawa, M. Ishida, T. Nakajima, Y. Honda, O. Kitao, 
 H. Nakai, M. Klene, X. Li, J. E. Knox, H. P. Hratchian, J. B. Cross, 
 C. Adamo, J. Jaramillo, R. Gomperts, R. E. Stratmann, O. Yazyev, 
 A. J. Austin, R. Cammi, C. Pomelli, J. W. Ochterski, P. Y. Ayala, 
 K. Morokuma, G. A. Voth, P. Salvador, J. J. Dannenberg, 
 V. G. Zakrzewski, S. Dapprich, A. D. Daniels, M. C. Strain, 
 O. Farkas, D. K. Malick, A. D. Rabuck, K. Raghavachari, 
 J. B. Foresman, J. V. Ortiz, Q. Cui, A. G. Baboul, S. Clifford, 
 J. Cioslowski, B. B. Stefanov, G. Liu, A. Liashenko, P. Piskorz, 
 I. Komaromi, R. L. Martin, D. J. Fox, T. Keith, M. A. Al-Laham, 
 C. Y. Peng, A. Nanayakkara, M. Challacombe, P. M. W. Gill, 
 B. Johnson, W. Chen, M. W. Wong, C. Gonzalez, and J. A. Pople, 
 Gaussian, Inc., Pittsburgh PA, 2003.
 
 *********************************************
 Gaussian 03:  x86-Win32-G03RevB.03 4-May-2003
                  19-Jun-2017 
 *********************************************
 % Chk=H2S++-UHF-3-21g-TRIPLETE
 Default route:  MaxDisk=2000MB
 --------------------
 # uhf/3-21g pop=full
 --------------------
 1/38=1/1;
 2/17=6,18=5,40=1/2;
 3/5=5,11=2,16=1,25=1,30=1/1,2,3;
 4/7=2/1;
 5/5=2,32=1,38=5/2;
 6/7=3,28=1/1;
 99/5=1,9=1/99;
 ------------------------------
 UHF triplete en 3-21g de H2S++
 ------------------------------
 Symbolic Z-matrix:
 Charge =  2 Multiplicity = 3
 S1
 H2                   1     1.336 
 H3                   1     1.336    2     92.11 
 
                          Input orientation:                          
 ---------------------------------------------------------------------
 Center     Atomic     Atomic              Coordinates (Angstroms)
 Number     Number      Type              X           Y           Z
 ---------------------------------------------------------------------
    1         16             0        0.000000    0.000000    0.000000
    2          1             0        0.000000    0.000000    1.336000
    3          1             0        1.335094    0.000000   -0.049189
 ---------------------------------------------------------------------
                    Distance matrix (angstroms):
                    1          2          3
     1  S    0.000000
     2  H    1.336000   0.000000
     3  H    1.336000   1.923857   0.000000
 Stoichiometry    H2S(2+,3)
 Framework group  C2V[C2(S),SGV(H2)]
 Deg. of freedom     2
 Full point group                 C2V     NOp   4
 Largest Abelian subgroup         C2V     NOp   4
 Largest concise Abelian subgroup C2      NOp   2
                         Standard orientation:                         
 ---------------------------------------------------------------------
 Center     Atomic     Atomic              Coordinates (Angstroms)
 Number     Number      Type              X           Y           Z
 ---------------------------------------------------------------------
    1         16             0        0.000000    0.000000    0.103016
    2          1             0        0.000000    0.961928   -0.824125
    3          1             0        0.000000   -0.961928   -0.824125
 ---------------------------------------------------------------------
 Rotational constants (GHZ):    310.0716863    270.9670960    144.6017494
 Standard basis: 3-21G (6D, 7F)
 There are     9 symmetry adapted basis functions of A1  symmetry.
 There are     0 symmetry adapted basis functions of A2  symmetry.
 There are     3 symmetry adapted basis functions of B1  symmetry.
 There are     5 symmetry adapted basis functions of B2  symmetry.
 Integral buffers will be    262144 words long.
 Raffenetti 2 integral format.
 Two-electron integral symmetry is turned on.
    17 basis functions,    33 primitive gaussians,    17 cartesian basis functions
     9 alpha electrons        7 beta electrons
       nuclear repulsion energy        12.9499637920 Hartrees.
 NAtoms=    3 NActive=    3 NUniq=    2 SFac= 2.76D+00 NAtFMM=   60 Big=F
 One-electron integrals computed using PRISM.
 NBasis=    17 RedAO= T  NBF=     9     0     3     5
 NBsUse=    17 1.00D-06 NBFU=     9     0     3     5
 Harris functional with IExCor=  205 diagonalized for initial guess.
 ExpMin= 1.42D-01 ExpMax= 1.21D+03 ExpMxC= 1.21D+03 IAcc=1 IRadAn=         1 AccDes= 1.00D-06
 HarFok:  IExCor= 205 AccDes= 1.00D-06 IRadAn=         1 IDoV=1
 ScaDFX=  1.000000  1.000000  1.000000  1.000000
 Initial guess orbital symmetries:
 Alpha Orbitals:
       Occupied  (A1) (A1) (B2) (A1) (B1) (A1) (B2) (A1) (B1)
       Virtual   (B2) (A1) (B2) (A1) (B1) (A1) (A1) (B2)
 Beta  Orbitals:
       Occupied  (A1) (A1) (B2) (A1) (B1) (A1) (B2)
       Virtual   (A1) (B1) (B2) (A1) (B2) (A1) (B1) (A1) (A1) (B2)
 The electronic state of the initial guess is 3-B1.
 <S**2> of initial guess= 2.0000
 Warning!  Cutoffs for single-point calculations used.
 Requested convergence on RMS density matrix=1.00D-04 within 128 cycles.
 Requested convergence on MAX density matrix=1.00D-02.
 Requested convergence on             energy=5.00D-05.
 No special actions if energy rises.
 Keep R1 and R2 integrals in memory in canonical form, NReq=      445113.
 SCF Done:  E(UHF) =  -395.577369243     A.U. after    7 cycles
             Convg  =    0.1305D-04             -V/T =  1.9996
             S**2   =   2.0060
 Annihilation of the first spin contaminant:
 S**2 before annihilation     2.0060,   after     2.0000

 **********************************************************************

            Population analysis using the SCF density.

 **********************************************************************

 Orbital symmetries:
 Alpha Orbitals:
       Occupied  (A1) (A1) (B1) (A1) (B2) (A1) (B2) (A1) (B1)
       Virtual   (B2) (A1) (A1) (B1) (B2) (A1) (A1) (B2)
 Beta  Orbitals:
       Occupied  (A1) (A1) (B2) (A1) (B1) (A1) (B2)
       Virtual   (A1) (B1) (B2) (A1) (B2) (A1) (A1) (B1) (A1) (B2)
 The electronic state is 3-B1.
 Alpha  occ. eigenvalues --  -92.15278  -9.75155  -7.43752  -7.43447  -7.41867
 Alpha  occ. eigenvalues --   -1.79829  -1.29966  -1.29462  -1.19627
 Alpha virt. eigenvalues --   -0.43928  -0.38255  -0.00430   0.02716   0.03580
 Alpha virt. eigenvalues --    0.06332   0.53784   0.58656
  Beta  occ. eigenvalues --  -92.12837  -9.72142  -7.40150  -7.38765  -7.37806
  Beta  occ. eigenvalues --   -1.60775  -1.24048
  Beta virt. eigenvalues --   -0.73742  -0.63544  -0.38283  -0.33989   0.05901
  Beta virt. eigenvalues --    0.08451   0.10667   0.12509   0.55338   0.60121
     Alpha Molecular Orbital Coefficients
                           1         2         3         4         5
                        (A1)--O   (A1)--O   (B1)--O   (A1)--O   (B2)--O
     EIGENVALUES --   -92.15278  -9.75155  -7.43752  -7.43447  -7.41867
   1 1   S  1S          0.98642  -0.30132   0.00000   0.00108   0.00000
   2        2S          0.05125   0.98853   0.00000  -0.00322   0.00000
   3        2PX         0.00000   0.00000   0.97467   0.00000   0.00000
   4        2PY         0.00000   0.00000   0.00000   0.00000   0.97375
   5        2PZ        -0.00008   0.00496   0.00000   0.97368   0.00000
   6        3S         -0.01713   0.13147   0.00000  -0.00584   0.00000
   7        3PX         0.00000   0.00000   0.07954   0.00000   0.00000
   8        3PY         0.00000   0.00000   0.00000   0.00000   0.08248
   9        3PZ         0.00044  -0.00307   0.00000   0.08277   0.00000
  10        4S          0.01116  -0.06846   0.00000   0.01302   0.00000
  11        4PX         0.00000   0.00000  -0.02250   0.00000   0.00000
  12        4PY         0.00000   0.00000   0.00000   0.00000  -0.02840
  13        4PZ        -0.00226   0.01436   0.00000  -0.02993   0.00000
  14 2   H  1S          0.00090  -0.00447   0.00000   0.00437  -0.00487
  15        2S         -0.00286   0.01743   0.00000  -0.00987   0.00839
  16 3   H  1S          0.00090  -0.00447   0.00000   0.00437   0.00487
  17        2S         -0.00286   0.01743   0.00000  -0.00987  -0.00839
                           6         7         8         9        10
                        (A1)--O   (B2)--O   (A1)--O   (B1)--O   (B2)--V
     EIGENVALUES --    -1.79829  -1.29966  -1.29462  -1.19627  -0.43928
   1 1   S  1S          0.07840   0.00000   0.02084   0.00000   0.00000
   2        2S         -0.44808   0.00000  -0.12257   0.00000   0.00000
   3        2PX         0.00000   0.00000   0.00000  -0.31478   0.00000
   4        2PY         0.00000  -0.26029   0.00000   0.00000   0.16505
   5        2PZ         0.02761   0.00000  -0.28106   0.00000   0.00000
   6        3S          0.64889   0.00000   0.21869   0.00000   0.00000
   7        3PX         0.00000   0.00000   0.00000   0.74811   0.00000
   8        3PY         0.00000   0.59955   0.00000   0.00000  -0.39842
   9        3PZ        -0.04944   0.00000   0.65523   0.00000   0.00000
  10        4S          0.40435   0.00000   0.12455   0.00000   0.00000
  11        4PX         0.00000   0.00000   0.00000   0.38200   0.00000
  12        4PY         0.00000   0.20958   0.00000   0.00000  -0.90914
  13        4PZ        -0.05606   0.00000   0.28417   0.00000   0.00000
  14 2   H  1S          0.11204   0.21145  -0.14525   0.00000   0.23153
  15        2S         -0.00983   0.14440  -0.07582   0.00000   0.94735
  16 3   H  1S          0.11204  -0.21145  -0.14525   0.00000  -0.23153
  17        2S         -0.00983  -0.14440  -0.07582   0.00000  -0.94735
                          11        12        13        14        15
                        (A1)--V   (A1)--V   (B1)--V   (B2)--V   (A1)--V
     EIGENVALUES --    -0.38255  -0.00430   0.02716   0.03580   0.06332
   1 1   S  1S         -0.03411  -0.04218   0.00000   0.00000  -0.03377
   2        2S          0.21000   0.22191   0.00000   0.00000   0.16306
   3        2PX         0.00000   0.00000   0.30499   0.00000   0.00000
   4        2PY         0.00000   0.00000   0.00000   0.29239   0.00000
   5        2PZ        -0.13918   0.21317   0.00000   0.00000  -0.19760
   6        3S         -0.35840  -1.38505   0.00000   0.00000  -1.40401
   7        3PX         0.00000   0.00000  -1.14739   0.00000   0.00000
   8        3PY         0.00000   0.00000   0.00000  -1.12256   0.00000
   9        3PZ         0.35439  -0.77559   0.00000   0.00000   0.81866
  10        4S         -1.03422   1.78785   0.00000   0.00000   2.46031
  11        4PX         0.00000   0.00000   1.24905   0.00000   0.00000
  12        4PY         0.00000   0.00000   0.00000   1.45086   0.00000
  13        4PZ         0.88740   0.52814   0.00000   0.00000  -1.76603
  14 2   H  1S          0.17077  -0.04976   0.00000  -0.14939  -0.22996
  15        2S          1.13294  -0.34373   0.00000  -0.16089  -0.87873
  16 3   H  1S          0.17077  -0.04976   0.00000   0.14939  -0.22996
  17        2S          1.13294  -0.34373   0.00000   0.16089  -0.87873
                          16        17
                        (A1)--V   (B2)--V
     EIGENVALUES --     0.53784   0.58656
   1 1   S  1S         -0.02117   0.00000
   2        2S          0.11451   0.00000
   3        2PX         0.00000   0.00000
   4        2PY         0.00000  -0.13337
   5        2PZ        -0.12189   0.00000
   6        3S         -0.56616   0.00000
   7        3PX         0.00000   0.00000
   8        3PY         0.00000   0.41298
   9        3PZ         0.37493   0.00000
  10        4S          1.54665   0.00000
  11        4PX         0.00000   0.00000
  12        4PY         0.00000  -0.85929
  13        4PZ        -0.83181   0.00000
  14 2   H  1S          0.88596  -0.90966
  15        2S         -1.37268   1.35102
  16 3   H  1S          0.88596   0.90966
  17        2S         -1.37268  -1.35102
     Beta Molecular Orbital Coefficients.
                           1         2         3         4         5
                        (A1)--O   (A1)--O   (B2)--O   (A1)--O   (B1)--O
     EIGENVALUES --   -92.12837  -9.72142  -7.40150  -7.38765  -7.37806
   1 1   S  1S          0.98646  -0.30136   0.00000  -0.00163   0.00000
   2        2S          0.05110   0.98934   0.00000   0.00548   0.00000
   3        2PX         0.00000   0.00000   0.00000   0.00000   0.97383
   4        2PY         0.00000   0.00000   0.97415   0.00000   0.00000
   5        2PZ        -0.00009  -0.00429   0.00000   0.97318   0.00000
   6        3S         -0.01701   0.13068   0.00000  -0.00322   0.00000
   7        3PX         0.00000   0.00000   0.00000   0.00000   0.08222
   8        3PY         0.00000   0.00000   0.08147   0.00000   0.00000
   9        3PZ         0.00045  -0.00321   0.00000   0.08443   0.00000
  10        4S          0.01112  -0.07016   0.00000   0.01202   0.00000
  11        4PX         0.00000   0.00000   0.00000   0.00000  -0.02411
  12        4PY         0.00000   0.00000  -0.02887   0.00000   0.00000
  13        4PZ        -0.00226   0.01458   0.00000  -0.03135   0.00000
  14 2   H  1S          0.00090  -0.00450  -0.00472   0.00423   0.00000
  15        2S         -0.00285   0.01786   0.00867  -0.01009   0.00000
  16 3   H  1S          0.00090  -0.00450   0.00472   0.00423   0.00000
  17        2S         -0.00285   0.01786  -0.00867  -0.01009   0.00000
                           6         7         8         9        10
                        (A1)--O   (B2)--O   (A1)--V   (B1)--V   (B2)--V
     EIGENVALUES --    -1.60775  -1.24048  -0.73742  -0.63544  -0.38283
   1 1   S  1S          0.06971   0.00000   0.03691   0.00000   0.00000
   2        2S         -0.39884   0.00000  -0.21763   0.00000   0.00000
   3        2PX         0.00000   0.00000   0.00000  -0.26082   0.00000
   4        2PY         0.00000  -0.24097   0.00000   0.00000  -0.16967
   5        2PZ         0.09168   0.00000  -0.20963   0.00000   0.00000
   6        3S          0.56657   0.00000   0.27570   0.00000   0.00000
   7        3PX         0.00000   0.00000   0.00000   0.54813   0.00000
   8        3PY         0.00000   0.54554   0.00000   0.00000   0.39579
   9        3PZ        -0.20726   0.00000   0.43196   0.00000   0.00000
  10        4S          0.33721   0.00000   0.42442   0.00000   0.00000
  11        4PX         0.00000   0.00000   0.00000   0.58319   0.00000
  12        4PY         0.00000   0.18642   0.00000   0.00000   0.97906
  13        4PZ        -0.06623   0.00000   0.33352   0.00000   0.00000
  14 2   H  1S          0.15235   0.23074  -0.14028   0.00000  -0.20322
  15        2S          0.04100   0.19149  -0.17835   0.00000  -0.96715
  16 3   H  1S          0.15235  -0.23074  -0.14028   0.00000   0.20322
  17        2S          0.04100  -0.19149  -0.17835   0.00000   0.96715
                          11        12        13        14        15
                        (A1)--V   (B2)--V   (A1)--V   (A1)--V   (B1)--V
     EIGENVALUES --    -0.33989   0.05901   0.08451   0.10667   0.12509
   1 1   S  1S         -0.03332   0.00000  -0.05688  -0.00283   0.00000
   2        2S          0.20506   0.00000   0.29185   0.02887   0.00000
   3        2PX         0.00000   0.00000   0.00000   0.00000  -0.35456
   4        2PY         0.00000   0.29987   0.00000   0.00000   0.00000
   5        2PZ        -0.15137   0.00000   0.07913   0.31463   0.00000
   6        3S         -0.37428   0.00000  -1.97191   0.26973   0.00000
   7        3PX         0.00000   0.00000   0.00000   0.00000   1.25511
   8        3PY         0.00000  -1.13846   0.00000   0.00000   0.00000
   9        3PZ         0.36335   0.00000  -0.19484  -1.17945   0.00000
  10        4S         -0.99672   0.00000   2.90830  -0.91122   0.00000
  11        4PX         0.00000   0.00000   0.00000   0.00000  -1.16870
  12        4PY         0.00000   1.40553   0.00000   0.00000   0.00000
  13        4PZ         0.97535   0.00000  -0.67071   1.65348   0.00000
  14 2   H  1S          0.13660  -0.16373  -0.15964   0.18649   0.00000
  15        2S          1.14142  -0.11469  -0.82944   0.45201   0.00000
  16 3   H  1S          0.13660   0.16373  -0.15964   0.18649   0.00000
  17        2S          1.14142   0.11469  -0.82944   0.45201   0.00000
                          16        17
                        (A1)--V   (B2)--V
     EIGENVALUES --     0.55338   0.60121
   1 1   S  1S         -0.02081   0.00000
   2        2S          0.11291   0.00000
   3        2PX         0.00000   0.00000
   4        2PY         0.00000  -0.14396
   5        2PZ        -0.13763   0.00000
   6        3S         -0.55628   0.00000
   7        3PX         0.00000   0.00000
   8        3PY         0.00000   0.44576
   9        3PZ         0.42280   0.00000
  10        4S          1.52126   0.00000
  11        4PX         0.00000   0.00000
  12        4PY         0.00000  -0.86314
  13        4PZ        -0.84275   0.00000
  14 2   H  1S          0.88391  -0.90927
  15        2S         -1.35474   1.33576
  16 3   H  1S          0.88391   0.90927
  17        2S         -1.35474  -1.33576
     ALPHA DENSITY MATRIX.
                           1         2         3         4         5
   1 1   S  1S          1.07040
   2        2S         -0.28499   1.19563
   3        2PX         0.00000   0.00000   1.04907
   4        2PY         0.00000   0.00000   0.00000   1.01594
   5        2PZ        -0.00422   0.02384   0.00000   0.00000   1.02784
   6        3S         -0.00109  -0.18846   0.00000   0.00000  -0.04858
   7        3PX         0.00000   0.00000  -0.15796   0.00000   0.00000
   8        3PY         0.00000   0.00000   0.00000  -0.07574   0.00000
   9        3PZ         0.01123  -0.06144   0.00000   0.00000  -0.10494
  10        4S          0.06595  -0.26359   0.00000   0.00000  -0.01150
  11        4PX         0.00000   0.00000  -0.14217   0.00000   0.00000
  12        4PY         0.00000   0.00000   0.00000  -0.08221   0.00000
  13        4PZ        -0.00506   0.00446   0.00000   0.00000  -0.11048
  14 2   H  1S          0.00800  -0.03678   0.00000  -0.05978   0.04815
  15        2S         -0.01043   0.03081   0.00000  -0.02942   0.01151
  16 3   H  1S          0.00800  -0.03678   0.00000   0.05978   0.04815
  17        2S         -0.01043   0.03081   0.00000   0.02942   0.01151
                           6         7         8         9        10
   6        3S          0.48649
   7        3PX         0.00000   0.56599
   8        3PY         0.00000   0.00000   0.36626
   9        3PZ         0.11032   0.00000   0.00000   0.43863
  10        4S          0.28035   0.00000   0.00000   0.06291   0.18399
  11        4PX         0.00000   0.28399   0.00000   0.00000   0.00000
  12        4PY         0.00000   0.00000   0.12331   0.00000   0.00000
  13        4PZ         0.02787   0.00000   0.00000   0.18645   0.01133
  14 2   H  1S          0.04031   0.00000   0.12637  -0.10033   0.02758
  15        2S         -0.02056   0.00000   0.08727  -0.05006  -0.01477
  16 3   H  1S          0.04031   0.00000  -0.12637  -0.10033   0.02758
  17        2S         -0.02056   0.00000  -0.08727  -0.05006  -0.01477
                          11        12        13        14        15
  11        4PX         0.14643
  12        4PY         0.00000   0.04473
  13        4PZ         0.00000   0.00000   0.08500
  14 2   H  1S          0.00000   0.04445  -0.04775   0.07842
  15        2S          0.00000   0.03003  -0.02044   0.04028   0.02718
  16 3   H  1S          0.00000  -0.04445  -0.04775  -0.01105  -0.02070
  17        2S          0.00000  -0.03003  -0.02044  -0.02070  -0.01467
                          16        17
  16 3   H  1S          0.07842
  17        2S          0.04028   0.02718
     BETA DENSITY MATRIX.
                           1         2         3         4         5
   1 1   S  1S          1.06878
   2        2S         -0.27555   1.14050
   3        2PX         0.00000   0.00000   0.94835
   4        2PY         0.00000   0.00000   0.00000   1.00703
   5        2PZ         0.00601  -0.03548   0.00000   0.00000   0.95551
   6        3S         -0.01666  -0.09757   0.00000   0.00000   0.04825
   7        3PX         0.00000   0.00000   0.08007   0.00000   0.00000
   8        3PY         0.00000   0.00000   0.00000  -0.05209   0.00000
   9        3PZ        -0.01317   0.07997   0.00000   0.00000   0.06318
  10        4S          0.05561  -0.20327   0.00000   0.00000   0.04291
  11        4PX         0.00000   0.00000  -0.02348   0.00000   0.00000
  12        4PY         0.00000   0.00000   0.00000  -0.07304   0.00000
  13        4PZ        -0.01118   0.04055   0.00000   0.00000  -0.03664
  14 2   H  1S          0.01286  -0.06515   0.00000  -0.06020   0.01810
  15        2S         -0.00532   0.00111   0.00000  -0.03770  -0.00614
  16 3   H  1S          0.01286  -0.06515   0.00000   0.06020   0.01810
  17        2S         -0.00532   0.00111   0.00000   0.03770  -0.00614
                           6         7         8         9        10
   6        3S          0.33838
   7        3PX         0.00000   0.00676
   8        3PY         0.00000   0.00000   0.30426
   9        3PZ        -0.11813   0.00000   0.00000   0.05010
  10        4S          0.18166   0.00000   0.00000  -0.06864   0.11890
  11        4PX         0.00000  -0.00198   0.00000   0.00000   0.00000
  12        4PY         0.00000   0.00000   0.09935   0.00000   0.00000
  13        4PZ        -0.03548   0.00000   0.00000   0.01103  -0.02376
  14 2   H  1S          0.08570   0.00000   0.12550  -0.03120   0.05175
  15        2S          0.02564   0.00000   0.10517  -0.00941   0.01242
  16 3   H  1S          0.08570   0.00000  -0.12550  -0.03120   0.05175
  17        2S          0.02564   0.00000  -0.10517  -0.00941   0.01242
                          11        12        13        14        15
  11        4PX         0.00058
  12        4PY         0.00000   0.03558
  13        4PZ         0.00000   0.00000   0.00559
  14 2   H  1S          0.00000   0.04315  -0.01029   0.07651
  15        2S          0.00000   0.03545  -0.00213   0.05027   0.03886
  16 3   H  1S          0.00000  -0.04315  -0.01029  -0.03002  -0.03802
  17        2S          0.00000  -0.03545  -0.00213  -0.03802  -0.03464
                          16        17
  16 3   H  1S          0.07651
  17        2S          0.05027   0.03886
    Full Mulliken population analysis:
                           1         2         3         4         5
   1 1   S  1S          2.13918
   2        2S         -0.14325   2.33614
   3        2PX         0.00000   0.00000   1.99742
   4        2PY         0.00000   0.00000   0.00000   2.02297
   5        2PZ         0.00000   0.00000   0.00000   0.00000   1.98335
   6        3S         -0.00090  -0.11676   0.00000   0.00000   0.00000
   7        3PX         0.00000   0.00000  -0.02439   0.00000   0.00000
   8        3PY         0.00000   0.00000   0.00000  -0.04002   0.00000
   9        3PZ         0.00000   0.00000   0.00000   0.00000  -0.01308
  10        4S          0.00403  -0.11683   0.00000   0.00000   0.00000
  11        4PX         0.00000   0.00000  -0.01175   0.00000   0.00000
  12        4PY         0.00000   0.00000   0.00000  -0.01101   0.00000
  13        4PZ         0.00000   0.00000   0.00000   0.00000  -0.01043
  14 2   H  1S          0.00001  -0.00098   0.00000  -0.00103  -0.00055
  15        2S         -0.00020   0.00314   0.00000  -0.00163  -0.00013
  16 3   H  1S          0.00001  -0.00098   0.00000  -0.00103  -0.00055
  17        2S         -0.00020   0.00314   0.00000  -0.00163  -0.00013
                           6         7         8         9        10
   6        3S          0.82487
   7        3PX         0.00000   0.57275
   8        3PY         0.00000   0.00000   0.67052
   9        3PZ         0.00000   0.00000   0.00000   0.48873
  10        4S          0.38217   0.00000   0.00000   0.00000   0.30290
  11        4PX         0.00000   0.17754   0.00000   0.00000   0.00000
  12        4PY         0.00000   0.00000   0.14018   0.00000   0.00000
  13        4PZ         0.00000   0.00000   0.00000   0.12433   0.00000
  14 2   H  1S          0.01940   0.00000   0.04978   0.02506   0.02066
  15        2S          0.00204   0.00000   0.04731   0.01409  -0.00139
  16 3   H  1S          0.01940   0.00000   0.04978   0.02506   0.02066
  17        2S          0.00204   0.00000   0.04731   0.01409  -0.00139
                          11        12        13        14        15
  11        4PX         0.14701
  12        4PY         0.00000   0.08032
  13        4PZ         0.00000   0.00000   0.09059
  14 2   H  1S          0.00000   0.02684   0.01714   0.15494
  15        2S          0.00000   0.02997   0.00996   0.05848   0.06603
  16 3   H  1S          0.00000   0.02684   0.01714  -0.00015  -0.00515
  17        2S          0.00000   0.02997   0.00996  -0.00515  -0.01469
                          16        17
  16 3   H  1S          0.15494
  17        2S          0.05848   0.06603
     Gross orbital populations:
                         TOTAL     ALPHA     BETA      SPIN
   1 1   S  1S          1.99869   0.99945   0.99924   0.00020
   2        2S          1.96362   0.98526   0.97836   0.00690
   3        2PX         1.96128   0.98953   0.97175   0.01778
   4        2PY         1.96662   0.98394   0.98268   0.00126
   5        2PZ         1.95849   0.98581   0.97267   0.01314
   6        3S          1.13226   0.63733   0.49494   0.14239
   7        3PX         0.72591   0.69533   0.03058   0.66475
   8        3PY         0.96485   0.51304   0.45181   0.06123
   9        3PZ         0.67827   0.58511   0.09317   0.49194
  10        4S          0.61080   0.34897   0.26183   0.08714
  11        4PX         0.31281   0.31514  -0.00233   0.31747
  12        4PY         0.32312   0.17127   0.15185   0.01942
  13        4PZ         0.25869   0.24080   0.01789   0.22290
  14 2   H  1S          0.36445   0.18652   0.17793   0.00859
  15        2S          0.20784   0.08800   0.11985  -0.03185
  16 3   H  1S          0.36445   0.18652   0.17793   0.00859
  17        2S          0.20784   0.08800   0.11985  -0.03185
          Condensed to atoms (all electrons):
              1          2          3
     1  S   14.336414   0.259498   0.259498
     2  H    0.259498   0.337935  -0.025138
     3  H    0.259498  -0.025138   0.337935
 Mulliken atomic charges:
              1
     1  S    1.144590
     2  H    0.427705
     3  H    0.427705
 Sum of Mulliken charges=   2.00000
 Atomic charges with hydrogens summed into heavy atoms:
              1
     1  S    2.000000
     2  H    0.000000
     3  H    0.000000
 Sum of Mulliken charges=   2.00000
          Atomic-Atomic Spin Densities.
              1          2          3
     1  S    2.065809  -0.009645  -0.009645
     2  H   -0.009645  -0.022670   0.009055
     3  H   -0.009645   0.009055  -0.022670
 Mulliken atomic spin densities:
              1
     1  S    2.046519
     2  H   -0.023260
     3  H   -0.023260
 Sum of Mulliken spin densities=   2.00000
 Electronic spatial extent (au):  <R**2>=    28.1389
 Charge=     2.0000 electrons
 Dipole moment (field-independent basis, Debye):
    X=     0.0000    Y=     0.0000    Z=    -1.6990  Tot=     1.6990
 Quadrupole moment (field-independent basis, Debye-Ang):
   XX=    -9.4803   YY=    -6.2804   ZZ=    -5.8581
   XY=     0.0000   XZ=     0.0000   YZ=     0.0000
 Traceless Quadrupole moment (field-independent basis, Debye-Ang):
   XX=    -2.2740   YY=     0.9259   ZZ=     1.3481
   XY=     0.0000   XZ=     0.0000   YZ=     0.0000
 Octapole moment (field-independent basis, Debye-Ang**2):
  XXX=     0.0000  YYY=     0.0000  ZZZ=    -2.2576  XYY=     0.0000
  XXY=     0.0000  XXZ=     0.0961  XZZ=     0.0000  YZZ=     0.0000
  YYZ=    -3.0953  XYZ=     0.0000
 Hexadecapole moment (field-independent basis, Debye-Ang**3):
 XXXX=    -9.1420 YYYY=   -10.8541 ZZZZ=    -9.3736 XXXY=     0.0000
 XXXZ=     0.0000 YYYX=     0.0000 YYYZ=     0.0000 ZZZX=     0.0000
 ZZZY=     0.0000 XXYY=    -3.9703 XXZZ=    -3.4999 YYZZ=    -1.3774
 XXYZ=     0.0000 YYXZ=     0.0000 ZZXY=     0.0000
 N-N= 1.294996379203D+01 E-N=-9.561548709183D+02  KE= 3.957493791997D+02
 Symmetry A1   KE= 3.204949688384D+02
 Symmetry A2   KE= 0.000000000000D+00
 Symmetry B1   KE= 3.707871214514D+01
 Symmetry B2   KE= 3.817569821616D+01
 Orbital energies and kinetic energies (alpha):
                           1         2
       1  (A1)--O     -92.15278 120.25020
       2  (A1)--O      -9.75155  19.18118
       3  (B1)--O      -7.43752  17.37770
       4  (A1)--O      -7.43447  17.34913
       5  (B2)--O      -7.41867  17.35089
       6  (A1)--O      -1.79829   2.52950
       7  (B2)--O      -1.29966   1.81612
       8  (A1)--O      -1.29462   2.15625
       9  (B1)--O      -1.19627   2.34812
      10  (B2)--V      -0.43928   1.22499
      11  (A1)--V      -0.38255   1.45558
      12  (A1)--V      -0.00430   2.20534
      13  (B1)--V       0.02716   2.38544
      14  (B2)--V       0.03580   2.25895
      15  (A1)--V       0.06332   1.94718
      16  (A1)--V       0.53784   2.51184
      17  (B2)--V       0.58656   2.36013
 Orbital energies and kinetic energies (beta):
                           1         2
       1  (A1)--O     -92.12837 120.26115
       2  (A1)--O      -9.72142  19.19449
       3  (B2)--O      -7.40150  17.36305
       4  (A1)--O      -7.38765  17.33468
       5  (B1)--O      -7.37806  17.35289
       6  (A1)--O      -1.60775   2.23838
       7  (B2)--O      -1.24048   1.64564
       8  (A1)--V      -0.73742   1.77656
       9  (B1)--V      -0.63544   1.69994
      10  (B2)--V      -0.38283   1.22107
      11  (A1)--V      -0.33989   1.47236
      12  (B2)--V       0.05901   2.35626
      13  (A1)--V       0.08451   2.13960
      14  (A1)--V       0.10667   2.58114
      15  (B1)--V       0.12509   3.05843
      16  (A1)--V       0.55338   2.58785
      17  (B2)--V       0.60121   2.42507
 Total kinetic energy from orbitals= 3.957493791997D+02
                          Isotropic Fermi Contact Couplings
        Atom                 a.u.       MegaHertz       Gauss      10(-4) cm-1
     1  S(33)              1.46618     251.79635      89.84719      83.99022
     2  H(1)               0.00691      15.45392       5.51434       5.15487
     3  H(1)               0.00691      15.45392       5.51434       5.15487
 --------------------------------------------------------
       Center         ----  Spin Dipole Couplings  ----
                      3XX-RR        3YY-RR        3ZZ-RR
 --------------------------------------------------------
     1   Atom        2.936739     -3.805984      0.869245
     2   Atom       -0.042884      0.035436      0.007448
     3   Atom       -0.042884      0.035436      0.007448
 --------------------------------------------------------
                        XY            XZ            YZ
 --------------------------------------------------------
     1   Atom        0.000000      0.000000      0.000000
     2   Atom        0.000000      0.000000     -0.082918
     3   Atom        0.000000      0.000000      0.082918
 --------------------------------------------------------


 ---------------------------------------------------------------------------------
              Anisotropic Spin Dipole Couplings in Principal Axis System
 ---------------------------------------------------------------------------------

       Atom             a.u.   MegaHertz   Gauss  10(-4) cm-1        Axes

              Baa    -3.8060  -156.042   -55.680   -52.050  0.0000  1.0000  0.0000
     1 S(33)  Bbb     0.8692    35.638    12.717    11.888  0.0000  0.0000  1.0000
              Bcc     2.9367   120.404    42.963    40.162  1.0000  0.0000  0.0000
 
              Baa    -0.0626   -33.426   -11.927   -11.150  0.0000  0.6456  0.7637
     2 H(1)   Bbb    -0.0429   -22.881    -8.164    -7.632  1.0000  0.0000  0.0000
              Bcc     0.1055    56.307    20.092    18.782  0.0000  0.7637 -0.6456
 
              Baa    -0.0626   -33.426   -11.927   -11.150  0.0000 -0.6456  0.7637
     3 H(1)   Bbb    -0.0429   -22.881    -8.164    -7.632  1.0000  0.0000  0.0000
              Bcc     0.1055    56.307    20.092    18.782  0.0000  0.7637  0.6456
 

 ---------------------------------------------------------------------------------

 1|1|UNPC-UNK|SP|UHF|3-21G|H2S1(2+,3)|PCUSER|19-Jun-2017|0||# UHF/3-21G
  POP=FULL||UHF triplete en 3-21g de H2S++||2,3|S|H,1,1.336|H,1,1.336,2
 ,92.11||Version=x86-Win32-G03RevB.03|State=3-B1|HF=-395.5773692|S2=2.0
 06029|S2-1=0.|S2A=2.000009|RMSD=1.305e-005|Dipole=0.4812781,0.,0.46387
 28|PG=C02V [C2(S1),SGV(H2)]||@


 THERE ARE PEOPLE SO ADDICTED TO EXAGERATING THEY
 CAN'T TELL THE TRUTH WITHOUT LYING. -- FORTUNE COOKIE
 Job cpu time:  0 days  0 hours  0 minutes  1.0 seconds.
 File lengths (MBytes):  RWF=     11 Int=      0 D2E=      0 Chk=      7 Scr=      1
 Normal termination of Gaussian 03 at Mon Jun 19 12:20:38 2017.
