 Entering Link 1 = C:\G03W\l1.exe PID=      4004.
  
 Copyright (c) 1988,1990,1992,1993,1995,1998,2003, Gaussian, Inc.
                  All Rights Reserved.
  
 This is the Gaussian(R) 03 program.  It is based on the
 the Gaussian(R) 98 system (copyright 1998, Gaussian, Inc.),
 the Gaussian(R) 94 system (copyright 1995, Gaussian, Inc.),
 the Gaussian 92(TM) system (copyright 1992, Gaussian, Inc.),
 the Gaussian 90(TM) system (copyright 1990, Gaussian, Inc.),
 the Gaussian 88(TM) system (copyright 1988, Gaussian, Inc.),
 the Gaussian 86(TM) system (copyright 1986, Carnegie Mellon
 University), and the Gaussian 82(TM) system (copyright 1983,
 Carnegie Mellon University). Gaussian is a federally registered
 trademark of Gaussian, Inc.
  
 This software contains proprietary and confidential information,
 including trade secrets, belonging to Gaussian, Inc.
  
 This software is provided under written license and may be
 used, copied, transmitted, or stored only in accord with that
 written license.
  
 The following legend is applicable only to US Government
 contracts under DFARS:
  
                    RESTRICTED RIGHTS LEGEND
  
 Use, duplication or disclosure by the US Government is subject
 to restrictions as set forth in subparagraph (c)(1)(ii) of the
 Rights in Technical Data and Computer Software clause at DFARS
 252.227-7013.
  
 Gaussian, Inc.
 Carnegie Office Park, Building 6, Pittsburgh, PA 15106 USA
  
 The following legend is applicable only to US Government
 contracts under FAR:
  
                    RESTRICTED RIGHTS LEGEND
  
 Use, reproduction and disclosure by the US Government is subject
 to restrictions as set forth in subparagraph (c) of the
 Commercial Computer Software - Restricted Rights clause at FAR
 52.227-19.
  
 Gaussian, Inc.
 Carnegie Office Park, Building 6, Pittsburgh, PA 15106 USA
  
  
 ---------------------------------------------------------------
 Warning -- This program may not be used in any manner that
 competes with the business of Gaussian, Inc. or will provide
 assistance to any competitor of Gaussian, Inc.  The licensee
 of this program is prohibited from giving any competitor of
 Gaussian, Inc. access to this program.  By using this program,
 the user acknowledges that Gaussian, Inc. is engaged in the
 business of creating and licensing software in the field of
 computational chemistry and represents and warrants to the
 licensee that it is not a competitor of Gaussian, Inc. and that
 it will not use this program in any manner prohibited above.
 ---------------------------------------------------------------
  

 Cite this work as:
 Gaussian 03, Revision B.03,
 M. J. Frisch, G. W. Trucks, H. B. Schlegel, G. E. Scuseria, 
 M. A. Robb, J. R. Cheeseman, J. A. Montgomery, Jr., T. Vreven, 
 K. N. Kudin, J. C. Burant, J. M. Millam, S. S. Iyengar, J. Tomasi, 
 V. Barone, B. Mennucci, M. Cossi, G. Scalmani, N. Rega, 
 G. A. Petersson, H. Nakatsuji, M. Hada, M. Ehara, K. Toyota, 
 R. Fukuda, J. Hasegawa, M. Ishida, T. Nakajima, Y. Honda, O. Kitao, 
 H. Nakai, M. Klene, X. Li, J. E. Knox, H. P. Hratchian, J. B. Cross, 
 C. Adamo, J. Jaramillo, R. Gomperts, R. E. Stratmann, O. Yazyev, 
 A. J. Austin, R. Cammi, C. Pomelli, J. W. Ochterski, P. Y. Ayala, 
 K. Morokuma, G. A. Voth, P. Salvador, J. J. Dannenberg, 
 V. G. Zakrzewski, S. Dapprich, A. D. Daniels, M. C. Strain, 
 O. Farkas, D. K. Malick, A. D. Rabuck, K. Raghavachari, 
 J. B. Foresman, J. V. Ortiz, Q. Cui, A. G. Baboul, S. Clifford, 
 J. Cioslowski, B. B. Stefanov, G. Liu, A. Liashenko, P. Piskorz, 
 I. Komaromi, R. L. Martin, D. J. Fox, T. Keith, M. A. Al-Laham, 
 C. Y. Peng, A. Nanayakkara, M. Challacombe, P. M. W. Gill, 
 B. Johnson, W. Chen, M. W. Wong, C. Gonzalez, and J. A. Pople, 
 Gaussian, Inc., Pittsburgh PA, 2003.
 
 *********************************************
 Gaussian 03:  x86-Win32-G03RevB.03 4-May-2003
                  19-Jun-2017 
 *********************************************
 % Chk=H2S+-3-21g-CUARTETE
 Default route:  MaxDisk=2000MB
 --------------------
 # uhf/3-21g pop=full
 --------------------
 1/38=1/1;
 2/17=6,18=5,40=1/2;
 3/5=5,11=2,16=1,25=1,30=1/1,2,3;
 4/7=2/1;
 5/5=2,32=1,38=5/2;
 6/7=3,28=1/1;
 99/5=1,9=1/99;
 -----------------------------
 UHF cuartete en 3-21g de H2S+
 -----------------------------
 Symbolic Z-matrix:
 Charge =  1 Multiplicity = 4
 S1
 H2                   1     1.336 
 H3                   1     1.336    2     92.11 
 
                          Input orientation:                          
 ---------------------------------------------------------------------
 Center     Atomic     Atomic              Coordinates (Angstroms)
 Number     Number      Type              X           Y           Z
 ---------------------------------------------------------------------
    1         16             0        0.000000    0.000000    0.000000
    2          1             0        0.000000    0.000000    1.336000
    3          1             0        1.335094    0.000000   -0.049189
 ---------------------------------------------------------------------
                    Distance matrix (angstroms):
                    1          2          3
     1  S    0.000000
     2  H    1.336000   0.000000
     3  H    1.336000   1.923857   0.000000
 Stoichiometry    H2S(1+,4)
 Framework group  C2V[C2(S),SGV(H2)]
 Deg. of freedom     2
 Full point group                 C2V     NOp   4
 Largest Abelian subgroup         C2V     NOp   4
 Largest concise Abelian subgroup C2      NOp   2
                         Standard orientation:                         
 ---------------------------------------------------------------------
 Center     Atomic     Atomic              Coordinates (Angstroms)
 Number     Number      Type              X           Y           Z
 ---------------------------------------------------------------------
    1         16             0        0.000000    0.000000    0.103016
    2          1             0        0.000000    0.961928   -0.824125
    3          1             0        0.000000   -0.961928   -0.824125
 ---------------------------------------------------------------------
 Rotational constants (GHZ):    310.0716863    270.9670960    144.6017494
 Standard basis: 3-21G (6D, 7F)
 There are     9 symmetry adapted basis functions of A1  symmetry.
 There are     0 symmetry adapted basis functions of A2  symmetry.
 There are     3 symmetry adapted basis functions of B1  symmetry.
 There are     5 symmetry adapted basis functions of B2  symmetry.
 Integral buffers will be    262144 words long.
 Raffenetti 2 integral format.
 Two-electron integral symmetry is turned on.
    17 basis functions,    33 primitive gaussians,    17 cartesian basis functions
    10 alpha electrons        7 beta electrons
       nuclear repulsion energy        12.9499637920 Hartrees.
 NAtoms=    3 NActive=    3 NUniq=    2 SFac= 2.76D+00 NAtFMM=   60 Big=F
 One-electron integrals computed using PRISM.
 NBasis=    17 RedAO= T  NBF=     9     0     3     5
 NBsUse=    17 1.00D-06 NBFU=     9     0     3     5
 Harris functional with IExCor=  205 diagonalized for initial guess.
 ExpMin= 1.42D-01 ExpMax= 1.21D+03 ExpMxC= 1.21D+03 IAcc=1 IRadAn=         1 AccDes= 1.00D-06
 HarFok:  IExCor= 205 AccDes= 1.00D-06 IRadAn=         1 IDoV=1
 ScaDFX=  1.000000  1.000000  1.000000  1.000000
 Initial guess orbital symmetries:
 Alpha Orbitals:
       Occupied  (A1) (A1) (B2) (A1) (B1) (A1) (B2) (A1) (B1) (B2)
       Virtual   (A1) (B2) (A1) (B1) (A1) (A1) (B2)
 Beta  Orbitals:
       Occupied  (A1) (A1) (B2) (A1) (B1) (A1) (B2)
       Virtual   (A1) (B1) (B2) (A1) (B2) (A1) (B1) (A1) (A1) (B2)
 The electronic state of the initial guess is 4-A2.
 <S**2> of initial guess= 3.7500
 Warning!  Cutoffs for single-point calculations used.
 Requested convergence on RMS density matrix=1.00D-04 within 128 cycles.
 Requested convergence on MAX density matrix=1.00D-02.
 Requested convergence on             energy=5.00D-05.
 No special actions if energy rises.
 Keep R1 and R2 integrals in memory in canonical form, NReq=      445113.
 SCF Done:  E(UHF) =  -396.029419148     A.U. after    5 cycles
             Convg  =    0.6811D-04             -V/T =  1.9990
             S**2   =   3.7529
 Annihilation of the first spin contaminant:
 S**2 before annihilation     3.7529,   after     3.7500

 **********************************************************************

            Population analysis using the SCF density.

 **********************************************************************

 Orbital symmetries:
 Alpha Orbitals:
       Occupied  (A1) (A1) (B1) (A1) (B2) (A1) (B2) (A1) (B1) (B2)
       Virtual   (A1) (A1) (B1) (B2) (A1) (A1) (B2)
 Beta  Orbitals:
       Occupied  (A1) (A1) (B2) (A1) (B1) (A1) (B2)
       Virtual   (A1) (B1) (B2) (A1) (B2) (A1) (A1) (B1) (A1) (B2)
 The electronic state is 4-A2.
 Alpha  occ. eigenvalues --  -91.80057  -9.40045  -7.08649  -7.08183  -7.07208
 Alpha  occ. eigenvalues --   -1.47128  -1.01768  -0.99540  -0.87782  -0.46511
 Alpha virt. eigenvalues --   -0.13968   0.26563   0.30451   0.31188   0.35186
 Alpha virt. eigenvalues --    0.83309   0.86871
  Beta  occ. eigenvalues --  -91.77734  -9.37288  -7.04600  -7.04134  -7.03127
  Beta  occ. eigenvalues --   -1.25695  -0.87023
  Beta virt. eigenvalues --   -0.41137  -0.33550  -0.04272  -0.01565   0.35651
  Beta virt. eigenvalues --    0.37616   0.39678   0.40953   0.92744   0.96660
     Alpha Molecular Orbital Coefficients
                           1         2         3         4         5
                        (A1)--O   (A1)--O   (B1)--O   (A1)--O   (B2)--O
     EIGENVALUES --   -91.80057  -9.40045  -7.08649  -7.08183  -7.07208
   1 1   S  1S          0.98642  -0.30130   0.00000   0.00071   0.00000
   2        2S          0.05126   0.98835   0.00000  -0.00204   0.00000
   3        2PX         0.00000   0.00000   0.97439   0.00000   0.00000
   4        2PY         0.00000   0.00000   0.00000   0.00000   0.97413
   5        2PZ        -0.00009   0.00364   0.00000   0.97335   0.00000
   6        3S         -0.01714   0.13195   0.00000  -0.00559   0.00000
   7        3PX         0.00000   0.00000   0.08037   0.00000   0.00000
   8        3PY         0.00000   0.00000   0.00000   0.00000   0.08135
   9        3PZ         0.00044  -0.00310   0.00000   0.08378   0.00000
  10        4S          0.01117  -0.06866   0.00000   0.01334   0.00000
  11        4PX         0.00000   0.00000  -0.02281   0.00000   0.00000
  12        4PY         0.00000   0.00000   0.00000   0.00000  -0.02788
  13        4PZ        -0.00226   0.01451   0.00000  -0.03042   0.00000
  14 2   H  1S          0.00090  -0.00463   0.00000   0.00444  -0.00475
  15        2S         -0.00286   0.01749   0.00000  -0.01006   0.00824
  16 3   H  1S          0.00090  -0.00463   0.00000   0.00444   0.00475
  17        2S         -0.00286   0.01749   0.00000  -0.01006  -0.00824
                           6         7         8         9        10
                        (A1)--O   (B2)--O   (A1)--O   (B1)--O   (B2)--O
     EIGENVALUES --    -1.47128  -1.01768  -0.99540  -0.87782  -0.46511
   1 1   S  1S          0.07684   0.00000   0.02072   0.00000   0.00000
   2        2S         -0.43920   0.00000  -0.12311   0.00000   0.00000
   3        2PX         0.00000   0.00000   0.00000  -0.30215   0.00000
   4        2PY         0.00000  -0.24779   0.00000   0.00000   0.17451
   5        2PZ         0.01882   0.00000  -0.25688   0.00000   0.00000
   6        3S          0.60848   0.00000   0.19236   0.00000   0.00000
   7        3PX         0.00000   0.00000   0.00000   0.69922   0.00000
   8        3PY         0.00000   0.55866   0.00000   0.00000  -0.42582
   9        3PZ        -0.02821   0.00000   0.57607   0.00000   0.00000
  10        4S          0.42721   0.00000   0.22579   0.00000   0.00000
  11        4PX         0.00000   0.00000   0.00000   0.43413   0.00000
  12        4PY         0.00000   0.22872   0.00000   0.00000  -0.89080
  13        4PZ        -0.03824   0.00000   0.27920   0.00000   0.00000
  14 2   H  1S          0.11311   0.20916  -0.16746   0.00000   0.23867
  15        2S          0.00588   0.16528  -0.14524   0.00000   0.92313
  16 3   H  1S          0.11311  -0.20916  -0.16746   0.00000  -0.23867
  17        2S          0.00588  -0.16528  -0.14524   0.00000  -0.92313
                          11        12        13        14        15
                        (A1)--V   (A1)--V   (B1)--V   (B2)--V   (A1)--V
     EIGENVALUES --    -0.13968   0.26563   0.30451   0.31188   0.35186
   1 1   S  1S         -0.03282  -0.04444   0.00000   0.00000  -0.03610
   2        2S          0.20386   0.23487   0.00000   0.00000   0.17707
   3        2PX         0.00000   0.00000   0.31835   0.00000   0.00000
   4        2PY         0.00000   0.00000   0.00000   0.30017   0.00000
   5        2PZ        -0.14785   0.22453   0.00000   0.00000  -0.21119
   6        3S         -0.27932  -1.40951   0.00000   0.00000  -1.42502
   7        3PX         0.00000   0.00000  -1.17777   0.00000   0.00000
   8        3PY         0.00000   0.00000   0.00000  -1.14306   0.00000
   9        3PZ         0.35435  -0.79961   0.00000   0.00000   0.85169
  10        4S         -1.18222   1.78333   0.00000   0.00000   2.40955
  11        4PX         0.00000   0.00000   1.23190   0.00000   0.00000
  12        4PY         0.00000   0.00000   0.00000   1.46557   0.00000
  13        4PZ         1.00572   0.51048   0.00000   0.00000  -1.72079
  14 2   H  1S          0.15724  -0.04014   0.00000  -0.14212  -0.21809
  15        2S          1.18626  -0.34254   0.00000  -0.19516  -0.83138
  16 3   H  1S          0.15724  -0.04014   0.00000   0.14212  -0.21809
  17        2S          1.18626  -0.34254   0.00000   0.19516  -0.83138
                          16        17
                        (A1)--V   (B2)--V
     EIGENVALUES --     0.83309   0.86871
   1 1   S  1S         -0.02109   0.00000
   2        2S          0.11440   0.00000
   3        2PX         0.00000   0.00000
   4        2PY         0.00000  -0.12484
   5        2PZ        -0.12616   0.00000
   6        3S         -0.55199   0.00000
   7        3PX         0.00000   0.00000
   8        3PY         0.00000   0.38608
   9        3PZ         0.38282   0.00000
  10        4S          1.50761   0.00000
  11        4PX         0.00000   0.00000
  12        4PY         0.00000  -0.84860
  13        4PZ        -0.80526   0.00000
  14 2   H  1S          0.88790  -0.90951
  15        2S         -1.35169   1.36084
  16 3   H  1S          0.88790   0.90951
  17        2S         -1.35169  -1.36084
     Beta Molecular Orbital Coefficients.
                           1         2         3         4         5
                        (A1)--O   (A1)--O   (B2)--O   (A1)--O   (B1)--O
     EIGENVALUES --   -91.77734  -9.37288  -7.04600  -7.04134  -7.03127
   1 1   S  1S          0.98646  -0.30135   0.00000  -0.00201   0.00000
   2        2S          0.05110   0.98929   0.00000   0.00678   0.00000
   3        2PX         0.00000   0.00000   0.00000   0.00000   0.97362
   4        2PY         0.00000   0.00000   0.97424   0.00000   0.00000
   5        2PZ        -0.00010  -0.00553   0.00000   0.97299   0.00000
   6        3S         -0.01702   0.13087   0.00000  -0.00322   0.00000
   7        3PX         0.00000   0.00000   0.00000   0.00000   0.08284
   8        3PY         0.00000   0.00000   0.08123   0.00000   0.00000
   9        3PZ         0.00045  -0.00337   0.00000   0.08500   0.00000
  10        4S          0.01113  -0.07040   0.00000   0.01224   0.00000
  11        4PX         0.00000   0.00000   0.00000   0.00000  -0.02436
  12        4PY         0.00000   0.00000  -0.02888   0.00000   0.00000
  13        4PZ        -0.00226   0.01469   0.00000  -0.03171   0.00000
  14 2   H  1S          0.00090  -0.00454  -0.00474   0.00433   0.00000
  15        2S         -0.00285   0.01794   0.00870  -0.01026   0.00000
  16 3   H  1S          0.00090  -0.00454   0.00474   0.00433   0.00000
  17        2S         -0.00285   0.01794  -0.00870  -0.01026   0.00000
                           6         7         8         9        10
                        (A1)--O   (B2)--O   (A1)--V   (B1)--V   (B2)--V
     EIGENVALUES --    -1.25695  -0.87023  -0.41137  -0.33550  -0.04272
   1 1   S  1S          0.07127   0.00000   0.03041   0.00000   0.00000
   2        2S         -0.40866   0.00000  -0.17967   0.00000   0.00000
   3        2PX         0.00000   0.00000   0.00000  -0.24640   0.00000
   4        2PY         0.00000  -0.24554   0.00000   0.00000  -0.13518
   5        2PZ         0.08598   0.00000  -0.21387   0.00000   0.00000
   6        3S          0.56202   0.00000   0.19901   0.00000   0.00000
   7        3PX         0.00000   0.00000   0.00000   0.49636   0.00000
   8        3PY         0.00000   0.54803   0.00000   0.00000   0.29232
   9        3PZ        -0.19575   0.00000   0.42917   0.00000   0.00000
  10        4S          0.39039   0.00000   0.38695   0.00000   0.00000
  11        4PX         0.00000   0.00000   0.00000   0.63047   0.00000
  12        4PY         0.00000   0.25401   0.00000   0.00000   1.07253
  13        4PZ        -0.06892   0.00000   0.42323   0.00000   0.00000
  14 2   H  1S          0.12405   0.19034  -0.11341   0.00000  -0.16761
  15        2S          0.02757   0.17047  -0.13544   0.00000  -1.05750
  16 3   H  1S          0.12405  -0.19034  -0.11341   0.00000   0.16761
  17        2S          0.02757  -0.17047  -0.13544   0.00000   1.05750
                          11        12        13        14        15
                        (A1)--V   (B2)--V   (A1)--V   (A1)--V   (B1)--V
     EIGENVALUES --    -0.01565   0.35651   0.37616   0.39678   0.40953
   1 1   S  1S         -0.03453   0.00000  -0.05779   0.00822   0.00000
   2        2S          0.21231   0.00000   0.29926  -0.02894   0.00000
   3        2PX         0.00000   0.00000   0.00000   0.00000  -0.36528
   4        2PY         0.00000   0.31303   0.00000   0.00000   0.00000
   5        2PZ        -0.11614   0.00000   0.13351   0.31244   0.00000
   6        3S         -0.38210   0.00000  -1.91500   0.62638   0.00000
   7        3PX         0.00000   0.00000   0.00000   0.00000   1.27643
   8        3PY         0.00000  -1.16899   0.00000   0.00000   0.00000
   9        3PZ         0.26282   0.00000  -0.39296  -1.16651   0.00000
  10        4S         -1.06977   0.00000   2.77021  -1.40962   0.00000
  11        4PX         0.00000   0.00000   0.00000   0.00000  -1.14388
  12        4PY         0.00000   1.36270   0.00000   0.00000   0.00000
  13        4PZ         1.04130   0.00000  -0.43707   1.72247   0.00000
  14 2   H  1S          0.09876  -0.15606  -0.10155   0.18502   0.00000
  15        2S          1.22376  -0.08529  -0.80916   0.59190   0.00000
  16 3   H  1S          0.09876   0.15606  -0.10155   0.18502   0.00000
  17        2S          1.22376   0.08529  -0.80916   0.59190   0.00000
                          16        17
                        (A1)--V   (B2)--V
     EIGENVALUES --     0.92744   0.96660
   1 1   S  1S         -0.02024   0.00000
   2        2S          0.11205   0.00000
   3        2PX         0.00000   0.00000
   4        2PY         0.00000  -0.14414
   5        2PZ        -0.13325   0.00000
   6        3S         -0.49661   0.00000
   7        3PX         0.00000   0.00000
   8        3PY         0.00000   0.44357
   9        3PZ         0.40319   0.00000
  10        4S          1.33506   0.00000
  11        4PX         0.00000   0.00000
  12        4PY         0.00000  -0.80128
  13        4PZ        -0.73134   0.00000
  14 2   H  1S          0.90584  -0.92706
  15        2S         -1.24183   1.27075
  16 3   H  1S          0.90584   0.92706
  17        2S         -1.24183  -1.27075
     ALPHA DENSITY MATRIX.
                           1         2         3         4         5
   1 1   S  1S          1.07013
   2        2S         -0.28352   1.18751
   3        2PX         0.00000   0.00000   1.04074
   4        2PY         0.00000   0.00000   0.00000   1.04078
   5        2PZ        -0.00437   0.02497   0.00000   0.00000   1.01377
   6        3S         -0.00593  -0.16138   0.00000   0.00000  -0.04292
   7        3PX         0.00000   0.00000  -0.13296   0.00000   0.00000
   8        3PY         0.00000   0.00000   0.00000  -0.13350   0.00000
   9        3PZ         0.01119  -0.06174   0.00000   0.00000  -0.06698
  10        4S          0.06922  -0.28275   0.00000   0.00000  -0.03723
  11        4PX         0.00000   0.00000  -0.15340   0.00000   0.00000
  12        4PY         0.00000   0.00000   0.00000  -0.23929   0.00000
  13        4PZ        -0.00378  -0.00329   0.00000   0.00000  -0.10199
  14 2   H  1S          0.00751  -0.03360   0.00000  -0.01480   0.04945
  15        2S         -0.01065   0.03246   0.00000   0.12817   0.02769
  16 3   H  1S          0.00751  -0.03360   0.00000   0.01480   0.04945
  17        2S         -0.01065   0.03246   0.00000  -0.12817   0.02769
                           6         7         8         9        10
   6        3S          0.42499
   7        3PX         0.00000   0.49537
   8        3PY         0.00000   0.00000   0.50005
   9        3PZ         0.09276   0.00000   0.00000   0.33968
  10        4S          0.29406   0.00000   0.00000   0.11935   0.23851
  11        4PX         0.00000   0.30172   0.00000   0.00000   0.00000
  12        4PY         0.00000   0.00000   0.50483   0.00000   0.00000
  13        4PZ         0.03256   0.00000   0.00000   0.15932   0.04528
  14 2   H  1S          0.03596   0.00000   0.01483  -0.09927   0.01090
  15        2S         -0.02195   0.00000  -0.30009  -0.08474  -0.03165
  16 3   H  1S          0.03596   0.00000  -0.01483  -0.09927   0.01090
  17        2S         -0.02195   0.00000   0.30009  -0.08474  -0.03165
                          11        12        13        14        15
  11        4PX         0.18899
  12        4PY         0.00000   0.84662
  13        4PZ         0.00000   0.00000   0.08056
  14 2   H  1S          0.00000  -0.16464  -0.05128   0.14161
  15        2S          0.00000  -0.78475  -0.04021   0.27971   0.90110
  16 3   H  1S          0.00000   0.16464  -0.05128  -0.05986  -0.23000
  17        2S          0.00000   0.78475  -0.04021  -0.23000  -0.85801
                          16        17
  16 3   H  1S          0.14161
  17        2S          0.27971   0.90110
     BETA DENSITY MATRIX.
                           1         2         3         4         5
   1 1   S  1S          1.06900
   2        2S         -0.27685   1.14836
   3        2PX         0.00000   0.00000   0.94794
   4        2PY         0.00000   0.00000   0.00000   1.00943
   5        2PZ         0.00573  -0.03401   0.00000   0.00000   0.95413
   6        3S         -0.01616  -0.10110   0.00000   0.00000   0.04447
   7        3PX         0.00000   0.00000   0.08066   0.00000   0.00000
   8        3PY         0.00000   0.00000   0.00000  -0.05542   0.00000
   9        3PZ        -0.01266   0.07726   0.00000   0.00000   0.06589
  10        4S          0.05999  -0.22854   0.00000   0.00000   0.04586
  11        4PX         0.00000   0.00000  -0.02372   0.00000   0.00000
  12        4PY         0.00000   0.00000   0.00000  -0.09051   0.00000
  13        4PZ        -0.01150   0.04237   0.00000   0.00000  -0.03686
  14 2   H  1S          0.01108  -0.05511   0.00000  -0.05135   0.01490
  15        2S         -0.00623   0.00626   0.00000  -0.03338  -0.00771
  16 3   H  1S          0.01108  -0.05511   0.00000   0.05135   0.01490
  17        2S         -0.00623   0.00626   0.00000   0.03338  -0.00771
                           6         7         8         9        10
   6        3S          0.33329
   7        3PX         0.00000   0.00686
   8        3PY         0.00000   0.00000   0.30694
   9        3PZ        -0.11074   0.00000   0.00000   0.04555
  10        4S          0.20997   0.00000   0.00000  -0.07514   0.15764
  11        4PX         0.00000  -0.00202   0.00000   0.00000   0.00000
  12        4PY         0.00000   0.00000   0.13686   0.00000   0.00000
  13        4PZ        -0.03667   0.00000   0.00000   0.01074  -0.02835
  14 2   H  1S          0.06910   0.00000   0.10393  -0.02390   0.04881
  15        2S          0.01793   0.00000   0.09413  -0.00633   0.00934
  16 3   H  1S          0.06910   0.00000  -0.10393  -0.02390   0.04881
  17        2S          0.01793   0.00000  -0.09413  -0.00633   0.00934
                          11        12        13        14        15
  11        4PX         0.00059
  12        4PY         0.00000   0.06536
  13        4PZ         0.00000   0.00000   0.00598
  14 2   H  1S          0.00000   0.04848  -0.00876   0.05168
  15        2S          0.00000   0.04305  -0.00130   0.03570   0.03033
  16 3   H  1S          0.00000  -0.04848  -0.00876  -0.02082  -0.02911
  17        2S          0.00000  -0.04305  -0.00130  -0.02911  -0.02794
                          16        17
  16 3   H  1S          0.05168
  17        2S          0.03570   0.03033
    Full Mulliken population analysis:
                           1         2         3         4         5
   1 1   S  1S          2.13913
   2        2S         -0.14321   2.33588
   3        2PX         0.00000   0.00000   1.98868
   4        2PY         0.00000   0.00000   0.00000   2.05020
   5        2PZ         0.00000   0.00000   0.00000   0.00000   1.96790
   6        3S         -0.00112  -0.10714   0.00000   0.00000   0.00000
   7        3PX         0.00000   0.00000  -0.01638   0.00000   0.00000
   8        3PY         0.00000   0.00000   0.00000  -0.05915   0.00000
   9        3PZ         0.00000   0.00000   0.00000   0.00000  -0.00034
  10        4S          0.00428  -0.12794   0.00000   0.00000   0.00000
  11        4PX         0.00000   0.00000  -0.01256   0.00000   0.00000
  12        4PY         0.00000   0.00000   0.00000  -0.02339   0.00000
  13        4PZ         0.00000   0.00000   0.00000   0.00000  -0.00985
  14 2   H  1S          0.00001  -0.00085   0.00000  -0.00057  -0.00053
  15        2S         -0.00021   0.00381   0.00000   0.00230  -0.00047
  16 3   H  1S          0.00001  -0.00085   0.00000  -0.00057  -0.00053
  17        2S         -0.00021   0.00381   0.00000   0.00230  -0.00047
                           6         7         8         9        10
   6        3S          0.75828
   7        3PX         0.00000   0.50223
   8        3PY         0.00000   0.00000   0.80699
   9        3PZ         0.00000   0.00000   0.00000   0.38524
  10        4S          0.41693   0.00000   0.00000   0.00000   0.39615
  11        4PX         0.00000   0.18869   0.00000   0.00000   0.00000
  12        4PY         0.00000   0.00000   0.40400   0.00000   0.00000
  13        4PZ         0.00000   0.00000   0.00000   0.10707   0.00000
  14 2   H  1S          0.01617   0.00000   0.02347   0.02346   0.01555
  15        2S         -0.00161   0.00000  -0.05063   0.02158  -0.01323
  16 3   H  1S          0.01617   0.00000   0.02347   0.02346   0.01555
  17        2S         -0.00161   0.00000  -0.05063   0.02158  -0.01323
                          11        12        13        14        15
  11        4PX         0.18958
  12        4PY         0.00000   0.91197
  13        4PZ         0.00000   0.00000   0.08653
  14 2   H  1S          0.00000  -0.03559   0.01773   0.19329
  15        2S          0.00000  -0.33955   0.01832   0.20372   0.93143
  16 3   H  1S          0.00000  -0.03559   0.01773  -0.00028  -0.02272
  17        2S          0.00000  -0.33955   0.01832  -0.02272  -0.26402
                          16        17
  16 3   H  1S          0.19329
  17        2S          0.20372   0.93143
     Gross orbital populations:
                         TOTAL     ALPHA     BETA      SPIN
   1 1   S  1S          1.99868   0.99941   0.99927   0.00014
   2        2S          1.96349   0.98417   0.97933   0.00484
   3        2PX         1.95975   0.98823   0.97151   0.01672
   4        2PY         1.97112   0.98797   0.98315   0.00482
   5        2PZ         1.95571   0.98345   0.97226   0.01119
   6        3S          1.09606   0.59552   0.50055   0.09497
   7        3PX         0.67454   0.64370   0.03084   0.61285
   8        3PY         1.09751   0.63440   0.46311   0.17129
   9        3PZ         0.58205   0.49700   0.08505   0.41194
  10        4S          0.69405   0.38143   0.31262   0.06880
  11        4PX         0.36571   0.36807  -0.00236   0.37043
  12        4PY         0.54231   0.32807   0.21424   0.11384
  13        4PZ         0.25586   0.23941   0.01645   0.22296
  14 2   H  1S          0.43286   0.29596   0.13690   0.15905
  15        2S          0.48871   0.38864   0.10008   0.28856
  16 3   H  1S          0.43286   0.29596   0.13690   0.15905
  17        2S          0.48871   0.38864   0.10008   0.28856
          Condensed to atoms (all electrons):
              1          2          3
     1  S   15.758556  -0.300854  -0.300854
     2  H   -0.300854   1.532176  -0.309747
     3  H   -0.300854  -0.309747   1.532176
 Mulliken atomic charges:
              1
     1  S    0.843151
     2  H    0.078425
     3  H    0.078425
 Sum of Mulliken charges=   1.00000
 Atomic charges with hydrogens summed into heavy atoms:
              1
     1  S    1.000000
     2  H    0.000000
     3  H    0.000000
 Sum of Mulliken charges=   1.00000
          Atomic-Atomic Spin Densities.
              1          2          3
     1  S    3.195938  -0.545578  -0.545578
     2  H   -0.545578   1.275921  -0.282733
     3  H   -0.545578  -0.282733   1.275921
 Mulliken atomic spin densities:
              1
     1  S    2.104782
     2  H    0.447609
     3  H    0.447609
 Sum of Mulliken spin densities=   3.00000
 Electronic spatial extent (au):  <R**2>=    38.8073
 Charge=     1.0000 electrons
 Dipole moment (field-independent basis, Debye):
    X=     0.0000    Y=     0.0000    Z=     0.2005  Tot=     0.2005
 Quadrupole moment (field-independent basis, Debye-Ang):
   XX=   -11.3800   YY=   -13.0540   ZZ=   -11.5342
   XY=     0.0000   XZ=     0.0000   YZ=     0.0000
 Traceless Quadrupole moment (field-independent basis, Debye-Ang):
   XX=     0.6094   YY=    -1.0646   ZZ=     0.4552
   XY=     0.0000   XZ=     0.0000   YZ=     0.0000
 Octapole moment (field-independent basis, Debye-Ang**2):
  XXX=     0.0000  YYY=     0.0000  ZZZ=     2.6161  XYY=     0.0000
  XXY=     0.0000  XXZ=     0.3786  XZZ=     0.0000  YZZ=     0.0000
  YYZ=     0.7572  XYZ=     0.0000
 Hexadecapole moment (field-independent basis, Debye-Ang**3):
 XXXX=   -11.8982 YYYY=   -26.7063 ZZZZ=   -22.2113 XXXY=     0.0000
 XXXZ=     0.0000 YYYX=     0.0000 YYYZ=     0.0000 ZZZX=     0.0000
 ZZZY=     0.0000 XXYY=    -6.3689 XXZZ=    -5.5175 YYZZ=    -9.9497
 XXYZ=     0.0000 YYXZ=     0.0000 ZZXY=     0.0000
 N-N= 1.294996379203D+01 E-N=-9.627012938021D+02  KE= 3.964078287897D+02
 Symmetry A1   KE= 3.201517686232D+02
 Symmetry A2   KE= 0.000000000000D+00
 Symmetry B1   KE= 3.689989951049D+01
 Symmetry B2   KE= 3.935616065605D+01
 Orbital energies and kinetic energies (alpha):
                           1         2
       1  (A1)--O     -91.80057 120.24950
       2  (A1)--O      -9.40045  19.17666
       3  (B1)--O      -7.08649  17.36940
       4  (A1)--O      -7.08183  17.33910
       5  (B2)--O      -7.07208  17.36214
       6  (A1)--O      -1.47128   2.42024
       7  (B2)--O      -1.01768   1.68590
       8  (A1)--O      -0.99540   1.90448
       9  (B1)--O      -0.87782   2.18384
      10  (B2)--O      -0.46511   1.29806
      11  (A1)--V      -0.13968   1.45974
      12  (A1)--V       0.26563   2.38779
      13  (B1)--V       0.30451   2.55802
      14  (B2)--V       0.31188   2.35572
      15  (A1)--V       0.35186   2.11080
      16  (A1)--V       0.83309   2.53791
      17  (B2)--V       0.86871   2.30926
 Orbital energies and kinetic energies (beta):
                           1         2
       1  (A1)--O     -91.77734 120.26121
       2  (A1)--O      -9.37288  19.19330
       3  (B2)--O      -7.04600  17.36569
       4  (A1)--O      -7.04134  17.32923
       5  (B1)--O      -7.03127  17.34665
       6  (A1)--O      -1.25695   2.27806
       7  (B2)--O      -0.87023   1.64436
       8  (A1)--V      -0.41137   1.62196
       9  (B1)--V      -0.33550   1.54876
      10  (B2)--V      -0.04272   0.97495
      11  (A1)--V      -0.01565   1.28138
      12  (B2)--V       0.35651   2.51829
      13  (A1)--V       0.37616   2.37683
      14  (A1)--V       0.39678   2.59531
      15  (B1)--V       0.40953   3.21584
      16  (A1)--V       0.92744   2.64894
      17  (B2)--V       0.96660   2.50778
 Total kinetic energy from orbitals= 3.964078287897D+02
                          Isotropic Fermi Contact Couplings
        Atom                 a.u.       MegaHertz       Gauss      10(-4) cm-1
     1  S(33)              1.02991     117.91495      42.07499      39.33219
     2  H(1)               0.13683     203.86677      72.74473      68.00264
     3  H(1)               0.13683     203.86677      72.74473      68.00264
 --------------------------------------------------------
       Center         ----  Spin Dipole Couplings  ----
                      3XX-RR        3YY-RR        3ZZ-RR
 --------------------------------------------------------
     1   Atom        2.296891     -2.217312     -0.079580
     2   Atom       -0.041814      0.035417      0.006397
     3   Atom       -0.041814      0.035417      0.006397
 --------------------------------------------------------
                        XY            XZ            YZ
 --------------------------------------------------------
     1   Atom        0.000000      0.000000      0.000000
     2   Atom        0.000000      0.000000     -0.073979
     3   Atom        0.000000      0.000000      0.073979
 --------------------------------------------------------


 ---------------------------------------------------------------------------------
              Anisotropic Spin Dipole Couplings in Principal Axis System
 ---------------------------------------------------------------------------------

       Atom             a.u.   MegaHertz   Gauss  10(-4) cm-1        Axes

              Baa    -2.2173   -90.908   -32.438   -30.324  0.0000  1.0000  0.0000
     1 S(33)  Bbb    -0.0796    -3.263    -1.164    -1.088  0.0000  0.0000  1.0000
              Bcc     2.2969    94.170    33.602    31.412  1.0000  0.0000  0.0000
 
              Baa    -0.0545   -29.069   -10.372    -9.696  0.0000  0.6354  0.7722
     2 H(1)   Bbb    -0.0418   -22.310    -7.961    -7.442  1.0000  0.0000  0.0000
              Bcc     0.0963    51.378    18.333    17.138  0.0000  0.7722 -0.6354
 
              Baa    -0.0545   -29.069   -10.372    -9.696  0.0000 -0.6354  0.7722
     3 H(1)   Bbb    -0.0418   -22.310    -7.961    -7.442  1.0000  0.0000  0.0000
              Bcc     0.0963    51.378    18.333    17.138  0.0000  0.7722  0.6354
 

 ---------------------------------------------------------------------------------

 1|1|UNPC-UNK|SP|UHF|3-21G|H2S1(1+,4)|PCUSER|19-Jun-2017|0||# UHF/3-21G
  POP=FULL||UHF cuartete en 3-21g de H2S+||1,4|S|H,1,1.336|H,1,1.336,2,
 92.11||Version=x86-Win32-G03RevB.03|State=4-A2|HF=-396.0294191|S2=3.75
 2892|S2-1=0.|S2A=3.750001|RMSD=6.811e-005|Dipole=-0.0567967,0.,-0.0547
 427|PG=C02V [C2(S1),SGV(H2)]||@


 SLITHERY-DITHERY
 FRIEDRICH A. KEKULE
 DREAMT ON A BUS OF THINGS
 FREUD WOULD THINK KEEN.
 MOST OF THE TIME THEY WERE
 HERPETOLOGICAL
 BITING THEIR TAILS IN THE
 SHAPE OF BENZENE.
 Job cpu time:  0 days  0 hours  0 minutes  1.0 seconds.
 File lengths (MBytes):  RWF=     11 Int=      0 D2E=      0 Chk=      7 Scr=      1
 Normal termination of Gaussian 03 at Mon Jun 19 12:18:08 2017.
