 Entering Link 1 = C:\G03W\l1.exe PID=      3148.
  
 Copyright (c) 1988,1990,1992,1993,1995,1998,2003, Gaussian, Inc.
                  All Rights Reserved.
  
 This is the Gaussian(R) 03 program.  It is based on the
 the Gaussian(R) 98 system (copyright 1998, Gaussian, Inc.),
 the Gaussian(R) 94 system (copyright 1995, Gaussian, Inc.),
 the Gaussian 92(TM) system (copyright 1992, Gaussian, Inc.),
 the Gaussian 90(TM) system (copyright 1990, Gaussian, Inc.),
 the Gaussian 88(TM) system (copyright 1988, Gaussian, Inc.),
 the Gaussian 86(TM) system (copyright 1986, Carnegie Mellon
 University), and the Gaussian 82(TM) system (copyright 1983,
 Carnegie Mellon University). Gaussian is a federally registered
 trademark of Gaussian, Inc.
  
 This software contains proprietary and confidential information,
 including trade secrets, belonging to Gaussian, Inc.
  
 This software is provided under written license and may be
 used, copied, transmitted, or stored only in accord with that
 written license.
  
 The following legend is applicable only to US Government
 contracts under DFARS:
  
                    RESTRICTED RIGHTS LEGEND
  
 Use, duplication or disclosure by the US Government is subject
 to restrictions as set forth in subparagraph (c)(1)(ii) of the
 Rights in Technical Data and Computer Software clause at DFARS
 252.227-7013.
  
 Gaussian, Inc.
 Carnegie Office Park, Building 6, Pittsburgh, PA 15106 USA
  
 The following legend is applicable only to US Government
 contracts under FAR:
  
                    RESTRICTED RIGHTS LEGEND
  
 Use, reproduction and disclosure by the US Government is subject
 to restrictions as set forth in subparagraph (c) of the
 Commercial Computer Software - Restricted Rights clause at FAR
 52.227-19.
  
 Gaussian, Inc.
 Carnegie Office Park, Building 6, Pittsburgh, PA 15106 USA
  
  
 ---------------------------------------------------------------
 Warning -- This program may not be used in any manner that
 competes with the business of Gaussian, Inc. or will provide
 assistance to any competitor of Gaussian, Inc.  The licensee
 of this program is prohibited from giving any competitor of
 Gaussian, Inc. access to this program.  By using this program,
 the user acknowledges that Gaussian, Inc. is engaged in the
 business of creating and licensing software in the field of
 computational chemistry and represents and warrants to the
 licensee that it is not a competitor of Gaussian, Inc. and that
 it will not use this program in any manner prohibited above.
 ---------------------------------------------------------------
  

 Cite this work as:
 Gaussian 03, Revision B.03,
 M. J. Frisch, G. W. Trucks, H. B. Schlegel, G. E. Scuseria, 
 M. A. Robb, J. R. Cheeseman, J. A. Montgomery, Jr., T. Vreven, 
 K. N. Kudin, J. C. Burant, J. M. Millam, S. S. Iyengar, J. Tomasi, 
 V. Barone, B. Mennucci, M. Cossi, G. Scalmani, N. Rega, 
 G. A. Petersson, H. Nakatsuji, M. Hada, M. Ehara, K. Toyota, 
 R. Fukuda, J. Hasegawa, M. Ishida, T. Nakajima, Y. Honda, O. Kitao, 
 H. Nakai, M. Klene, X. Li, J. E. Knox, H. P. Hratchian, J. B. Cross, 
 C. Adamo, J. Jaramillo, R. Gomperts, R. E. Stratmann, O. Yazyev, 
 A. J. Austin, R. Cammi, C. Pomelli, J. W. Ochterski, P. Y. Ayala, 
 K. Morokuma, G. A. Voth, P. Salvador, J. J. Dannenberg, 
 V. G. Zakrzewski, S. Dapprich, A. D. Daniels, M. C. Strain, 
 O. Farkas, D. K. Malick, A. D. Rabuck, K. Raghavachari, 
 J. B. Foresman, J. V. Ortiz, Q. Cui, A. G. Baboul, S. Clifford, 
 J. Cioslowski, B. B. Stefanov, G. Liu, A. Liashenko, P. Piskorz, 
 I. Komaromi, R. L. Martin, D. J. Fox, T. Keith, M. A. Al-Laham, 
 C. Y. Peng, A. Nanayakkara, M. Challacombe, P. M. W. Gill, 
 B. Johnson, W. Chen, M. W. Wong, C. Gonzalez, and J. A. Pople, 
 Gaussian, Inc., Pittsburgh PA, 2003.
 
 *********************************************
 Gaussian 03:  x86-Win32-G03RevB.03 4-May-2003
                  19-Jun-2017 
 *********************************************
 % Chk=H2S+-UHF-3-21g-DOBLETE
 Default route:  MaxDisk=2000MB
 --------------------
 # uhf/3-21g pop=full
 --------------------
 1/38=1/1;
 2/17=6,18=5,40=1/2;
 3/5=5,11=2,16=1,25=1,30=1/1,2,3;
 4/7=2/1;
 5/5=2,32=1,38=5/2;
 6/7=3,28=1/1;
 99/5=1,9=1/99;
 ----------------------------
 UHF Doblete en 3-21g de H2S+
 ----------------------------
 Symbolic Z-matrix:
 Charge =  1 Multiplicity = 2
 S1
 H2                   1     1.336 
 H3                   1     1.336    2     92.11 
 
                          Input orientation:                          
 ---------------------------------------------------------------------
 Center     Atomic     Atomic              Coordinates (Angstroms)
 Number     Number      Type              X           Y           Z
 ---------------------------------------------------------------------
    1         16             0        0.000000    0.000000    0.000000
    2          1             0        0.000000    0.000000    1.336000
    3          1             0        1.335094    0.000000   -0.049189
 ---------------------------------------------------------------------
                    Distance matrix (angstroms):
                    1          2          3
     1  S    0.000000
     2  H    1.336000   0.000000
     3  H    1.336000   1.923857   0.000000
 Stoichiometry    H2S(1+,2)
 Framework group  C2V[C2(S),SGV(H2)]
 Deg. of freedom     2
 Full point group                 C2V     NOp   4
 Largest Abelian subgroup         C2V     NOp   4
 Largest concise Abelian subgroup C2      NOp   2
                         Standard orientation:                         
 ---------------------------------------------------------------------
 Center     Atomic     Atomic              Coordinates (Angstroms)
 Number     Number      Type              X           Y           Z
 ---------------------------------------------------------------------
    1         16             0        0.000000    0.000000    0.103016
    2          1             0        0.000000    0.961928   -0.824125
    3          1             0        0.000000   -0.961928   -0.824125
 ---------------------------------------------------------------------
 Rotational constants (GHZ):    310.0716863    270.9670960    144.6017494
 Standard basis: 3-21G (6D, 7F)
 There are     9 symmetry adapted basis functions of A1  symmetry.
 There are     0 symmetry adapted basis functions of A2  symmetry.
 There are     3 symmetry adapted basis functions of B1  symmetry.
 There are     5 symmetry adapted basis functions of B2  symmetry.
 Integral buffers will be    262144 words long.
 Raffenetti 2 integral format.
 Two-electron integral symmetry is turned on.
    17 basis functions,    33 primitive gaussians,    17 cartesian basis functions
     9 alpha electrons        8 beta electrons
       nuclear repulsion energy        12.9499637920 Hartrees.
 NAtoms=    3 NActive=    3 NUniq=    2 SFac= 2.76D+00 NAtFMM=   60 Big=F
 One-electron integrals computed using PRISM.
 NBasis=    17 RedAO= T  NBF=     9     0     3     5
 NBsUse=    17 1.00D-06 NBFU=     9     0     3     5
 Harris functional with IExCor=  205 diagonalized for initial guess.
 ExpMin= 1.42D-01 ExpMax= 1.21D+03 ExpMxC= 1.21D+03 IAcc=1 IRadAn=         1 AccDes= 1.00D-06
 HarFok:  IExCor= 205 AccDes= 1.00D-06 IRadAn=         1 IDoV=1
 ScaDFX=  1.000000  1.000000  1.000000  1.000000
 Initial guess orbital symmetries:
 Alpha Orbitals:
       Occupied  (A1) (A1) (B2) (A1) (B1) (A1) (B2) (A1) (B1)
       Virtual   (B2) (A1) (B2) (A1) (B1) (A1) (A1) (B2)
 Beta  Orbitals:
       Occupied  (A1) (A1) (B2) (A1) (B1) (A1) (B2) (A1)
       Virtual   (B1) (B2) (A1) (B2) (A1) (B1) (A1) (A1) (B2)
 The electronic state of the initial guess is 2-B1.
 <S**2> of initial guess= 0.7500
 Warning!  Cutoffs for single-point calculations used.
 Requested convergence on RMS density matrix=1.00D-04 within 128 cycles.
 Requested convergence on MAX density matrix=1.00D-02.
 Requested convergence on             energy=5.00D-05.
 No special actions if energy rises.
 Keep R1 and R2 integrals in memory in canonical form, NReq=      445113.
 Convergence on energy, delta-E=-2.06D-05
 SCF Done:  E(UHF) =  -396.349420100     A.U. after    6 cycles
             Convg  =    0.1341D-03             -V/T =  2.0002
             S**2   =   0.7569
 Annihilation of the first spin contaminant:
 S**2 before annihilation     0.7569,   after     0.7500

 **********************************************************************

            Population analysis using the SCF density.

 **********************************************************************

 Orbital symmetries:
 Alpha Orbitals:
       Occupied  (A1) (A1) (B1) (B2) (A1) (A1) (B2) (A1) (B1)
       Virtual   (B2) (A1) (B1) (A1) (B2) (A1) (A1) (B2)
 Beta  Orbitals:
       Occupied  (A1) (A1) (B2) (A1) (B1) (A1) (B2) (A1)
       Virtual   (B1) (B2) (A1) (B2) (A1) (A1) (B1) (A1) (B2)
 The electronic state is 2-B1.
 Alpha  occ. eigenvalues --  -91.72009  -9.32282  -7.00990  -6.99296  -6.99043
 Alpha  occ. eigenvalues --   -1.40005  -0.93066  -0.84551  -0.81245
 Alpha virt. eigenvalues --   -0.11359  -0.08207   0.34652   0.34810   0.35381
 Alpha virt. eigenvalues --    0.38153   0.85918   0.90252
  Beta  occ. eigenvalues --  -91.70886  -9.31053  -6.98441  -6.98308  -6.96341
  Beta  occ. eigenvalues --   -1.30282  -0.91766  -0.81011
  Beta virt. eigenvalues --   -0.31988  -0.10601  -0.06487   0.36716   0.38205
  Beta virt. eigenvalues --    0.39569   0.43567   0.85319   0.89654
     Alpha Molecular Orbital Coefficients
                           1         2         3         4         5
                        (A1)--O   (A1)--O   (B1)--O   (B2)--O   (A1)--O
     EIGENVALUES --   -91.72009  -9.32282  -7.00990  -6.99296  -6.99043
   1 1   S  1S          0.98643  -0.30126   0.00000   0.00000  -0.00515
   2        2S          0.05123   0.98836   0.00000   0.00000   0.01785
   3        2PX         0.00000   0.00000   0.97430   0.00000   0.00000
   4        2PY         0.00000   0.00000   0.00000   0.97336   0.00000
   5        2PZ        -0.00022  -0.01489   0.00000   0.00000   0.97351
   6        3S         -0.01712   0.13196   0.00000   0.00000  -0.00466
   7        3PX         0.00000   0.00000   0.08067   0.00000   0.00000
   8        3PY         0.00000   0.00000   0.00000   0.08368   0.00000
   9        3PZ         0.00048  -0.00579   0.00000   0.00000   0.08297
  10        4S          0.01117  -0.06952   0.00000   0.00000   0.01258
  11        4PX         0.00000   0.00000  -0.02299   0.00000   0.00000
  12        4PY         0.00000   0.00000   0.00000  -0.02929   0.00000
  13        4PZ        -0.00228   0.01555   0.00000   0.00000  -0.03023
  14 2   H  1S          0.00090  -0.00467   0.00000  -0.00491   0.00431
  15        2S         -0.00286   0.01795   0.00000   0.00880  -0.00991
  16 3   H  1S          0.00090  -0.00467   0.00000   0.00491   0.00431
  17        2S         -0.00286   0.01795   0.00000  -0.00880  -0.00991
                           6         7         8         9        10
                        (A1)--O   (B2)--O   (A1)--O   (B1)--O   (B2)--V
     EIGENVALUES --    -1.40005  -0.93066  -0.84551  -0.81245  -0.11359
   1 1   S  1S          0.07333   0.00000   0.02871   0.00000   0.00000
   2        2S         -0.41944   0.00000  -0.16975   0.00000   0.00000
   3        2PX         0.00000   0.00000   0.00000  -0.29299   0.00000
   4        2PY         0.00000  -0.23413   0.00000   0.00000  -0.16207
   5        2PZ         0.06071   0.00000  -0.24388   0.00000   0.00000
   6        3S          0.55712   0.00000   0.23511   0.00000   0.00000
   7        3PX         0.00000   0.00000   0.00000   0.66510   0.00000
   8        3PY         0.00000   0.51567   0.00000   0.00000   0.36357
   9        3PZ        -0.12740   0.00000   0.53813   0.00000   0.00000
  10        4S          0.44712   0.00000   0.31240   0.00000   0.00000
  11        4PX         0.00000   0.00000   0.00000   0.46933   0.00000
  12        4PY         0.00000   0.20619   0.00000   0.00000   1.03390
  13        4PZ        -0.07775   0.00000   0.30487   0.00000   0.00000
  14 2   H  1S          0.12198   0.21620  -0.14206   0.00000  -0.17867
  15        2S          0.00333   0.21352  -0.15068   0.00000  -1.00536
  16 3   H  1S          0.12198  -0.21620  -0.14206   0.00000   0.17867
  17        2S          0.00333  -0.21352  -0.15068   0.00000   1.00536
                          11        12        13        14        15
                        (A1)--V   (B1)--V   (A1)--V   (B2)--V   (A1)--V
     EIGENVALUES --    -0.08207   0.34652   0.34810   0.35381   0.38153
   1 1   S  1S         -0.03152   0.00000  -0.05839   0.00000  -0.00851
   2        2S          0.19599   0.00000   0.29925   0.00000   0.05633
   3        2PX         0.00000   0.32708   0.00000   0.00000   0.00000
   4        2PY         0.00000   0.00000   0.00000   0.30806   0.00000
   5        2PZ        -0.14217   0.00000   0.01116   0.00000   0.30982
   6        3S         -0.27727   0.00000  -2.02141   0.00000  -0.02355
   7        3PX         0.00000  -1.19734   0.00000   0.00000   0.00000
   8        3PY         0.00000   0.00000   0.00000  -1.15277   0.00000
   9        3PZ         0.34139   0.00000   0.03361   0.00000  -1.16902
  10        4S         -1.18693   0.00000   2.99548   0.00000  -0.42037
  11        4PX         0.00000   1.21892   0.00000   0.00000   0.00000
  12        4PY         0.00000   0.00000   0.00000   1.36368   0.00000
  13        4PZ         1.01259   0.00000  -0.88760   0.00000   1.55265
  14 2   H  1S          0.12167   0.00000  -0.17047  -0.18267   0.15445
  15        2S          1.22513   0.00000  -0.86765  -0.07616   0.31865
  16 3   H  1S          0.12167   0.00000  -0.17047   0.18267   0.15445
  17        2S          1.22513   0.00000  -0.86765   0.07616   0.31865
                          16        17
                        (A1)--V   (B2)--V
     EIGENVALUES --     0.85918   0.90252
   1 1   S  1S         -0.02086   0.00000
   2        2S          0.11401   0.00000
   3        2PX         0.00000   0.00000
   4        2PY         0.00000  -0.15179
   5        2PZ        -0.13832   0.00000
   6        3S         -0.52742   0.00000
   7        3PX         0.00000   0.00000
   8        3PY         0.00000   0.47087
   9        3PZ         0.42371   0.00000
  10        4S          1.42627   0.00000
  11        4PX         0.00000   0.00000
  12        4PY         0.00000  -0.86179
  13        4PZ        -0.79885   0.00000
  14 2   H  1S          0.89460  -0.91437
  15        2S         -1.29842   1.30665
  16 3   H  1S          0.89460   0.91437
  17        2S         -1.29842  -1.30665
     Beta Molecular Orbital Coefficients.
                           1         2         3         4         5
                        (A1)--O   (A1)--O   (B2)--O   (A1)--O   (B1)--O
     EIGENVALUES --   -91.70886  -9.31053  -6.98441  -6.98308  -6.96341
   1 1   S  1S          0.98645  -0.30130   0.00000  -0.00502   0.00000
   2        2S          0.05113   0.98895   0.00000   0.01744   0.00000
   3        2PX         0.00000   0.00000   0.00000   0.00000   0.97330
   4        2PY         0.00000   0.00000   0.97349   0.00000   0.00000
   5        2PZ        -0.00022  -0.01446   0.00000   0.97367   0.00000
   6        3S         -0.01705   0.13136   0.00000  -0.00484   0.00000
   7        3PX         0.00000   0.00000   0.00000   0.00000   0.08374
   8        3PY         0.00000   0.00000   0.08337   0.00000   0.00000
   9        3PZ         0.00048  -0.00584   0.00000   0.08257   0.00000
  10        4S          0.01115  -0.07088   0.00000   0.01278   0.00000
  11        4PX         0.00000   0.00000   0.00000   0.00000  -0.02448
  12        4PY         0.00000   0.00000  -0.02944   0.00000   0.00000
  13        4PZ        -0.00228   0.01611   0.00000  -0.03039   0.00000
  14 2   H  1S          0.00090  -0.00457  -0.00484   0.00423   0.00000
  15        2S         -0.00286   0.01847   0.00881  -0.00997   0.00000
  16 3   H  1S          0.00090  -0.00457   0.00484   0.00423   0.00000
  17        2S         -0.00286   0.01847  -0.00881  -0.00997   0.00000
                           6         7         8         9        10
                        (A1)--O   (B2)--O   (A1)--O   (B1)--V   (B2)--V
     EIGENVALUES --    -1.30282  -0.91766  -0.81011  -0.31988  -0.10601
   1 1   S  1S          0.06919   0.00000   0.03418   0.00000   0.00000
   2        2S         -0.39525   0.00000  -0.20149   0.00000   0.00000
   3        2PX         0.00000   0.00000   0.00000  -0.24334   0.00000
   4        2PY         0.00000  -0.21884   0.00000   0.00000  -0.16980
   5        2PZ         0.07046   0.00000  -0.23170   0.00000   0.00000
   6        3S          0.53676   0.00000   0.28302   0.00000   0.00000
   7        3PX         0.00000   0.00000   0.00000   0.48349   0.00000
   8        3PY         0.00000   0.47525   0.00000   0.00000   0.37358
   9        3PZ        -0.14936   0.00000   0.50434   0.00000   0.00000
  10        4S          0.34827   0.00000   0.33379   0.00000   0.00000
  11        4PX         0.00000   0.00000   0.00000   0.64192   0.00000
  12        4PY         0.00000   0.17518   0.00000   0.00000   1.06522
  13        4PZ        -0.04093   0.00000   0.31977   0.00000   0.00000
  14 2   H  1S          0.15410   0.23809  -0.13876   0.00000  -0.16932
  15        2S          0.06929   0.24858  -0.14363   0.00000  -0.99271
  16 3   H  1S          0.15410  -0.23809  -0.13876   0.00000   0.16932
  17        2S          0.06929  -0.24858  -0.14363   0.00000   0.99271
                          11        12        13        14        15
                        (A1)--V   (B2)--V   (A1)--V   (A1)--V   (B1)--V
     EIGENVALUES --    -0.06487   0.36716   0.38205   0.39569   0.43567
   1 1   S  1S         -0.03484   0.00000  -0.05804   0.00274   0.00000
   2        2S          0.21521   0.00000   0.29970  -0.00072   0.00000
   3        2PX         0.00000   0.00000   0.00000   0.00000  -0.36818
   4        2PY         0.00000   0.31085   0.00000   0.00000   0.00000
   5        2PZ        -0.14686   0.00000   0.07892   0.30149   0.00000
   6        3S         -0.30676   0.00000  -1.97133   0.38793   0.00000
   7        3PX         0.00000   0.00000   0.00000   0.00000   1.28130
   8        3PY         0.00000  -1.15701   0.00000   0.00000   0.00000
   9        3PZ         0.35115   0.00000  -0.22071  -1.15066   0.00000
  10        4S         -1.20121   0.00000   2.83403  -1.03200   0.00000
  11        4PX         0.00000   0.00000   0.00000   0.00000  -1.13750
  12        4PY         0.00000   1.33305   0.00000   0.00000   0.00000
  13        4PZ         1.02025   0.00000  -0.53840   1.69108   0.00000
  14 2   H  1S          0.10948  -0.19518  -0.14028   0.19843   0.00000
  15        2S          1.22446  -0.04463  -0.77311   0.48004   0.00000
  16 3   H  1S          0.10948   0.19518  -0.14028   0.19843   0.00000
  17        2S          1.22446   0.04463  -0.77311   0.48004   0.00000
                          16        17
                        (A1)--V   (B2)--V
     EIGENVALUES --     0.85319   0.89654
   1 1   S  1S         -0.02224   0.00000
   2        2S          0.12154   0.00000
   3        2PX         0.00000   0.00000
   4        2PY         0.00000  -0.15946
   5        2PZ        -0.14482   0.00000
   6        3S         -0.55550   0.00000
   7        3PX         0.00000   0.00000
   8        3PY         0.00000   0.49462
   9        3PZ         0.44382   0.00000
  10        4S          1.45518   0.00000
  11        4PX         0.00000   0.00000
  12        4PY         0.00000  -0.87829
  13        4PZ        -0.81644   0.00000
  14 2   H  1S          0.88829  -0.90811
  15        2S         -1.30807   1.31157
  16 3   H  1S          0.88829   0.90811
  17        2S         -1.30807  -1.31157
     ALPHA DENSITY MATRIX.
                           1         2         3         4         5
   1 1   S  1S          1.07002
   2        2S         -0.28294   1.18454
   3        2PX         0.00000   0.00000   1.03511
   4        2PY         0.00000   0.00000   0.00000   1.00225
   5        2PZ        -0.00329   0.01858   0.00000   0.00000   1.01110
   6        3S         -0.00901  -0.14413   0.00000   0.00000  -0.03002
   7        3PX         0.00000   0.00000  -0.11628   0.00000   0.00000
   8        3PY         0.00000   0.00000   0.00000  -0.03928   0.00000
   9        3PZ         0.00790  -0.04213   0.00000   0.00000  -0.05811
  10        4S          0.07365  -0.30848   0.00000   0.00000  -0.03577
  11        4PX         0.00000   0.00000  -0.15990   0.00000   0.00000
  12        4PY         0.00000   0.00000   0.00000  -0.07678   0.00000
  13        4PZ        -0.00373  -0.00442   0.00000   0.00000  -0.10874
  14 2   H  1S          0.00714  -0.03154   0.00000  -0.05540   0.04631
  15        2S         -0.01226   0.04160   0.00000  -0.04143   0.02704
  16 3   H  1S          0.00714  -0.03154   0.00000   0.05540   0.04631
  17        2S         -0.01226   0.04160   0.00000   0.04143   0.02704
                           6         7         8         9        10
   6        3S          0.38339
   7        3PX         0.00000   0.44887
   8        3PY         0.00000   0.00000   0.27292
   9        3PZ         0.05438   0.00000   0.00000   0.31273
  10        4S          0.31313   0.00000   0.00000   0.11260   0.30262
  11        4PX         0.00000   0.31030   0.00000   0.00000   0.00000
  12        4PY         0.00000   0.00000   0.10388   0.00000   0.00000
  13        4PZ         0.03059   0.00000   0.00000   0.17137   0.05899
  14 2   H  1S          0.03390   0.00000   0.11108  -0.09160   0.01055
  15        2S         -0.03111   0.00000   0.11084  -0.08243  -0.04699
  16 3   H  1S          0.03390   0.00000  -0.11108  -0.09160   0.01055
  17        2S         -0.03111   0.00000  -0.11084  -0.08243  -0.04699
                          11        12        13        14        15
  11        4PX         0.22080
  12        4PY         0.00000   0.04337
  13        4PZ         0.00000   0.00000   0.10015
  14 2   H  1S          0.00000   0.04472  -0.05300   0.08187
  15        2S          0.00000   0.04377  -0.04561   0.06780   0.06881
  16 3   H  1S          0.00000  -0.04472  -0.05300  -0.01167  -0.02444
  17        2S          0.00000  -0.04377  -0.04561  -0.02444  -0.02252
                          16        17
  16 3   H  1S          0.08187
  17        2S          0.06780   0.06881
     BETA DENSITY MATRIX.
                           1         2         3         4         5
   1 1   S  1S          1.06985
   2        2S         -0.28185   1.17777
   3        2PX         0.00000   0.00000   0.94731
   4        2PY         0.00000   0.00000   0.00000   0.99558
   5        2PZ        -0.00379   0.02151   0.00000   0.00000   1.00690
   6        3S         -0.00956  -0.14022   0.00000   0.00000  -0.03436
   7        3PX         0.00000   0.00000   0.08150   0.00000   0.00000
   8        3PY         0.00000   0.00000   0.00000  -0.02284   0.00000
   9        3PZ         0.00873  -0.04689   0.00000   0.00000  -0.04690
  10        4S          0.06780  -0.27422   0.00000   0.00000  -0.03933
  11        4PX         0.00000   0.00000  -0.02382   0.00000   0.00000
  12        4PY         0.00000   0.00000   0.00000  -0.06699   0.00000
  13        4PZ         0.00114  -0.03297   0.00000   0.00000  -0.10680
  14 2   H  1S          0.00816  -0.03735   0.00000  -0.05681   0.04719
  15        2S         -0.00845   0.01949   0.00000  -0.04583   0.02819
  16 3   H  1S          0.00816  -0.03735   0.00000   0.05681   0.04719
  17        2S         -0.00845   0.01949   0.00000   0.04583   0.02819
                           6         7         8         9        10
   6        3S          0.38578
   7        3PX         0.00000   0.00701
   8        3PY         0.00000   0.00000   0.23281
   9        3PZ         0.06139   0.00000   0.00000   0.28352
  10        4S          0.27184   0.00000   0.00000   0.11780   0.23803
  11        4PX         0.00000  -0.00205   0.00000   0.00000   0.00000
  12        4PY         0.00000   0.00000   0.08080   0.00000   0.00000
  13        4PZ         0.07083   0.00000   0.00000   0.16478   0.09093
  14 2   H  1S          0.04281   0.00000   0.11275  -0.09262   0.00774
  15        2S         -0.00093   0.00000   0.11887  -0.08372  -0.02528
  16 3   H  1S          0.04281   0.00000  -0.11275  -0.09262   0.00774
  17        2S         -0.00093   0.00000  -0.11887  -0.08372  -0.02528
                          11        12        13        14        15
  11        4PX         0.00060
  12        4PY         0.00000   0.03155
  13        4PZ         0.00000   0.00000   0.10511
  14 2   H  1S          0.00000   0.04185  -0.05088   0.09975
  15        2S          0.00000   0.04329  -0.04816   0.08962   0.08775
  16 3   H  1S          0.00000  -0.04185  -0.05088  -0.01367  -0.02866
  17        2S          0.00000  -0.04329  -0.04816  -0.02866  -0.03599
                          16        17
  16 3   H  1S          0.09975
  17        2S          0.08962   0.08775
    Full Mulliken population analysis:
                           1         2         3         4         5
   1 1   S  1S          2.13987
   2        2S         -0.14434   2.36230
   3        2PX         0.00000   0.00000   1.98242
   4        2PY         0.00000   0.00000   0.00000   1.99783
   5        2PZ         0.00000   0.00000   0.00000   0.00000   2.01799
   6        3S         -0.00094  -0.11607   0.00000   0.00000   0.00000
   7        3PX         0.00000   0.00000  -0.01089   0.00000   0.00000
   8        3PY         0.00000   0.00000   0.00000  -0.01945   0.00000
   9        3PZ         0.00000   0.00000   0.00000   0.00000  -0.03288
  10        4S          0.00469  -0.14581   0.00000   0.00000   0.00000
  11        4PX         0.00000   0.00000  -0.01303   0.00000   0.00000
  12        4PY         0.00000   0.00000   0.00000  -0.01020   0.00000
  13        4PZ         0.00000   0.00000   0.00000   0.00000  -0.01528
  14 2   H  1S          0.00001  -0.00066   0.00000  -0.00097  -0.00078
  15        2S         -0.00026   0.00601   0.00000  -0.00211  -0.00129
  16 3   H  1S          0.00001  -0.00066   0.00000  -0.00097  -0.00078
  17        2S         -0.00026   0.00601   0.00000  -0.00211  -0.00129
                           6         7         8         9        10
   6        3S          0.76917
   7        3PX         0.00000   0.45588
   8        3PY         0.00000   0.00000   0.50573
   9        3PZ         0.00000   0.00000   0.00000   0.59625
  10        4S          0.48389   0.00000   0.00000   0.00000   0.54065
  11        4PX         0.00000   0.19407   0.00000   0.00000   0.00000
  12        4PY         0.00000   0.00000   0.11627   0.00000   0.00000
  13        4PZ         0.00000   0.00000   0.00000   0.21163   0.00000
  14 2   H  1S          0.01181   0.00000   0.04424   0.03509   0.00476
  15        2S         -0.01286   0.00000   0.05647   0.03937  -0.04286
  16 3   H  1S          0.01181   0.00000   0.04424   0.03509   0.00476
  17        2S         -0.01286   0.00000   0.05647   0.03937  -0.04286
                          11        12        13        14        15
  11        4PX         0.22140
  12        4PY         0.00000   0.07493
  13        4PZ         0.00000   0.00000   0.20527
  14 2   H  1S          0.00000   0.02653   0.03068   0.18162
  15        2S          0.00000   0.03985   0.04137   0.10168   0.15656
  16 3   H  1S          0.00000   0.02653   0.03068  -0.00009  -0.00466
  17        2S          0.00000   0.03985   0.04137  -0.00466  -0.01744
                          16        17
  16 3   H  1S          0.18162
  17        2S          0.10168   0.15656
     Gross orbital populations:
                         TOTAL     ALPHA     BETA      SPIN
   1 1   S  1S          1.99878   0.99940   0.99938   0.00002
   2        2S          1.96677   0.98378   0.98299   0.00078
   3        2PX         1.95850   0.98736   0.97114   0.01622
   4        2PY         1.96202   0.98155   0.98047   0.00107
   5        2PZ         1.96570   0.98316   0.98254   0.00062
   6        3S          1.13395   0.56860   0.56535   0.00324
   7        3PX         0.63906   0.60782   0.03124   0.57658
   8        3PY         0.80396   0.42443   0.37954   0.04489
   9        3PZ         0.92392   0.47639   0.44753   0.02886
  10        4S          0.80722   0.43664   0.37057   0.06607
  11        4PX         0.40243   0.40481  -0.00238   0.40719
  12        4PY         0.31376   0.17081   0.14295   0.02786
  13        4PZ         0.54572   0.27189   0.27383  -0.00195
  14 2   H  1S          0.42927   0.19904   0.23022  -0.03118
  15        2S          0.35983   0.15264   0.20719  -0.05455
  16 3   H  1S          0.42927   0.19904   0.23022  -0.03118
  17        2S          0.35983   0.15264   0.20719  -0.05455
          Condensed to atoms (all electrons):
              1          2          3
     1  S   14.872990   0.274406   0.274406
     2  H    0.274406   0.541534  -0.026840
     3  H    0.274406  -0.026840   0.541534
 Mulliken atomic charges:
              1
     1  S    0.578198
     2  H    0.210901
     3  H    0.210901
 Sum of Mulliken charges=   1.00000
 Atomic charges with hydrogens summed into heavy atoms:
              1
     1  S    1.000000
     2  H    0.000000
     3  H    0.000000
 Sum of Mulliken charges=   1.00000
          Atomic-Atomic Spin Densities.
              1          2          3
     1  S    1.222451  -0.025490  -0.025490
     2  H   -0.025490  -0.065008   0.004762
     3  H   -0.025490   0.004762  -0.065008
 Mulliken atomic spin densities:
              1
     1  S    1.171471
     2  H   -0.085736
     3  H   -0.085736
 Sum of Mulliken spin densities=   1.00000
 Electronic spatial extent (au):  <R**2>=    36.1472
 Charge=     1.0000 electrons
 Dipole moment (field-independent basis, Debye):
    X=     0.0000    Y=     0.0000    Z=    -2.2302  Tot=     2.2302
 Quadrupole moment (field-independent basis, Debye-Ang):
   XX=   -11.5135   YY=    -9.6924   ZZ=   -11.1845
   XY=     0.0000   XZ=     0.0000   YZ=     0.0000
 Traceless Quadrupole moment (field-independent basis, Debye-Ang):
   XX=    -0.7167   YY=     1.1044   ZZ=    -0.3877
   XY=     0.0000   XZ=     0.0000   YZ=     0.0000
 Octapole moment (field-independent basis, Debye-Ang**2):
  XXX=     0.0000  YYY=     0.0000  ZZZ=    -2.3020  XYY=     0.0000
  XXY=     0.0000  XXZ=    -0.2890  XZZ=     0.0000  YZZ=     0.0000
  YYZ=    -1.6718  XYZ=     0.0000
 Hexadecapole moment (field-independent basis, Debye-Ang**3):
 XXXX=   -12.3000 YYYY=   -17.3848 ZZZZ=   -19.2798 XXXY=     0.0000
 XXXZ=     0.0000 YYYX=     0.0000 YYYZ=     0.0000 ZZZX=     0.0000
 ZZZY=     0.0000 XXYY=    -5.2966 XXZZ=    -5.4825 YYZZ=    -5.0463
 XXYZ=     0.0000 YYXZ=     0.0000 ZZXY=     0.0000
 N-N= 1.294996379203D+01 E-N=-9.638683159121D+02  KE= 3.962754105590D+02
 Symmetry A1   KE= 3.218073354578D+02
 Symmetry A2   KE= 0.000000000000D+00
 Symmetry B1   KE= 3.677344926294D+01
 Symmetry B2   KE= 3.769462583829D+01
 Orbital energies and kinetic energies (alpha):
                           1         2
       1  (A1)--O     -91.72009 120.25211
       2  (A1)--O      -9.32282  19.17736
       3  (B1)--O      -7.00990  17.36664
       4  (B2)--O      -6.99296  17.33939
       5  (A1)--O      -6.99043  17.34875
       6  (A1)--O      -1.40005   2.29630
       7  (B2)--O      -0.93066   1.56100
       8  (A1)--O      -0.84551   1.89867
       9  (B1)--O      -0.81245   2.06993
      10  (B2)--V      -0.11359   1.14286
      11  (A1)--V      -0.08207   1.35748
      12  (B1)--V       0.34652   2.67470
      13  (A1)--V       0.34810   2.09699
      14  (B2)--V       0.35381   2.46579
      15  (A1)--V       0.38153   2.51939
      16  (A1)--V       0.85918   2.63916
      17  (B2)--V       0.90252   2.50204
 Orbital energies and kinetic energies (beta):
                           1         2
       1  (A1)--O     -91.70886 120.25893
       2  (A1)--O      -9.31053  19.18779
       3  (B2)--O      -6.98441  17.34331
       4  (A1)--O      -6.98308  17.35359
       5  (B1)--O      -6.96341  17.33688
       6  (A1)--O      -1.30282   2.12616
       7  (B2)--O      -0.91766   1.45093
       8  (A1)--O      -0.81011   1.90767
       9  (B1)--V      -0.31988   1.51671
      10  (B2)--V      -0.10601   1.18109
      11  (A1)--V      -0.06487   1.46837
      12  (B2)--V       0.36716   2.50771
      13  (A1)--V       0.38205   2.17559
      14  (A1)--V       0.39569   2.42938
      15  (B1)--V       0.43567   3.25767
      16  (A1)--V       0.85319   2.67873
      17  (B2)--V       0.89654   2.52804
 Total kinetic energy from orbitals= 3.962754105590D+02
                          Isotropic Fermi Contact Couplings
        Atom                 a.u.       MegaHertz       Gauss      10(-4) cm-1
     1  S(33)              0.16060      55.16068      19.68270      18.39962
     2  H(1)              -0.02434    -108.81517     -38.82796     -36.29683
     3  H(1)              -0.02434    -108.81517     -38.82796     -36.29683
 --------------------------------------------------------
       Center         ----  Spin Dipole Couplings  ----
                      3XX-RR        3YY-RR        3ZZ-RR
 --------------------------------------------------------
     1   Atom        4.061149     -1.939143     -2.122006
     2   Atom       -0.009556      0.005939      0.003617
     3   Atom       -0.009556      0.005939      0.003617
 --------------------------------------------------------
                        XY            XZ            YZ
 --------------------------------------------------------
     1   Atom        0.000000      0.000000      0.000000
     2   Atom        0.000000      0.000000     -0.050417
     3   Atom        0.000000      0.000000      0.050417
 --------------------------------------------------------


 ---------------------------------------------------------------------------------
              Anisotropic Spin Dipole Couplings in Principal Axis System
 ---------------------------------------------------------------------------------

       Atom             a.u.   MegaHertz   Gauss  10(-4) cm-1        Axes

              Baa    -2.1220   -87.000   -31.044   -29.020  0.0000  0.0000  1.0000
     1 S(33)  Bbb    -1.9391   -79.503   -28.369   -26.519  0.0000  1.0000  0.0000
              Bcc     4.0611   166.503    59.413    55.540  1.0000  0.0000  0.0000
 
              Baa    -0.0457   -24.358    -8.692    -8.125  0.0000  0.6989  0.7152
     2 H(1)   Bbb    -0.0096    -5.098    -1.819    -1.701  1.0000  0.0000  0.0000
              Bcc     0.0552    29.457    10.511     9.826  0.0000  0.7152 -0.6989
 
              Baa    -0.0457   -24.358    -8.692    -8.125  0.0000 -0.6989  0.7152
     3 H(1)   Bbb    -0.0096    -5.098    -1.819    -1.701  1.0000  0.0000  0.0000
              Bcc     0.0552    29.457    10.511     9.826  0.0000  0.7152  0.6989
 

 ---------------------------------------------------------------------------------

 1|1|UNPC-UNK|SP|UHF|3-21G|H2S1(1+,2)|PCUSER|19-Jun-2017|0||# UHF/3-21G
  POP=FULL||UHF Doblete en 3-21g de H2S+||1,2|S|H,1,1.336|H,1,1.336,2,9
 2.11||Version=x86-Win32-G03RevB.03|State=2-B1|HF=-396.3494201|S2=0.756
 863|S2-1=0.|S2A=0.750028|RMSD=1.341e-004|Dipole=0.6317429,0.,0.6088961
 |PG=C02V [C2(S1),SGV(H2)]||@


 SLITHERY-DITHERY
 FRIEDRICH A. KEKULE
 DREAMT ON A BUS OF THINGS
 FREUD WOULD THINK KEEN.
 MOST OF THE TIME THEY WERE
 HERPETOLOGICAL
 BITING THEIR TAILS IN THE
 SHAPE OF BENZENE.
 Job cpu time:  0 days  0 hours  0 minutes  1.0 seconds.
 File lengths (MBytes):  RWF=     11 Int=      0 D2E=      0 Chk=      7 Scr=      1
 Normal termination of Gaussian 03 at Mon Jun 19 12:17:01 2017.
