NBO en 3-21g de H2S                                                     
SP        RHF                                                         3-21G               
Number of atoms                            I                3
Charge                                     I                0
Multiplicity                               I                1
Number of electrons                        I               18
Number of alpha electrons                  I                9
Number of beta electrons                   I                9
Number of basis functions                  I               17
Number of independant functions            I               17
Number of point charges in /Mol/           I                0
Number of translation vectors              I                0
Number of symbols in /Mol/                 I                0
Info1-9                                    I   N=           9
          11          10           0           0           0         110
           1           1           2
Num ILSW                                   I              100
ILSW                                       I   N=         100
           0           1           0           0           2           0
           0           0           3           0           0     1000000
           0           0           0           0           0           0
           0     1000000           1           0           0           0
           1           0           0           0     1000000           0
           0           0           0           0          -1           0
           0           0           0           0           0           0
           0           0           0           1           0           0
           0           0           1     1000000     1000000           0
           0           0           0           0           0           0
           0           0           0           0           0           0
           0           0           0           0           0           0
           0           0           0           0           0           0
           0           0           0           0           0           0
           0           0           0           0           0           0
           0           0           0           0           0           0
           0           0           0           0
Number of contracted shells                I                8
Highest angular momentum                   I                1
Largest degree of contraction              I                3
Number of primitive shells                 I               15
Pure/Cartesian d shells                    I                1
Pure/Cartesian f shells                    I                0
Virial Ratio                               R      2.000430749804645E+00
SCF Energy                                 R     -3.967039571161158E+02
Total Energy                               R     -3.967039571161158E+02
RMS Density                                R      1.602405413799164E-05
Atomic numbers                             I   N=           3
          16           1           1
Nuclear charges                            R   N=           3
  1.60000000E+01  1.00000000E+00  1.00000000E+00
Current cartesian coordinates              R   N=           9
  1.07977917E-32 -5.40321451E-18  1.94671319E-01  1.28392388E-32  1.81778125E+00
 -1.55737055E+00 -2.22606647E-16 -1.81778125E+00 -1.55737055E+00
Atom Types                                 C   N=           3
                                    
Int Atom Types                             I   N=           3
           0           0           0
Force Field                                I                0
MM charges                                 R   N=           3
  0.00000000E+00  0.00000000E+00  0.00000000E+00
Integer atomic weights                     I   N=           3
          32           1           1
Real atomic weights                        R   N=           3
  3.19720718E+01  1.00782504E+00  1.00782504E+00
Atom residue info                          I   N=           3
           0           0           0
Atom fragment info                         I   N=           3
           0           0           0
Atom residue num                           I   N=           3
           0           0           0
Nuclear spins                              I   N=           3
           0           1           1
Nuclear ZEff                               R   N=           3
 -1.36000000E+01 -1.00000000E+00 -1.00000000E+00
Nuclear QMom                               R   N=           3
  0.00000000E+00  0.00000000E+00  0.00000000E+00
Nuclear GFac                               R   N=           3
  0.00000000E+00  2.79284600E+00  2.79284600E+00
MicOpt                                     I   N=           3
           0           0           0
Constraint Structure                       R   N=           9
  1.07977917E-32 -5.40321451E-18  1.94671319E-01  1.28392388E-32  1.81778125E+00
 -1.55737055E+00 -2.22606647E-16 -1.81778125E+00 -1.55737055E+00
ONIOM Charges                              I   N=          16
           0           0           0           0           0           0
           0           0           0           0           0           0
           0           0           0           0
ONIOM Multiplicities                       I   N=          16
           1           0           0           0           0           0
           0           0           0           0           0           0
           0           0           0           0
Atom Layers                                I   N=           3
           1           1           1
Atom Modifiers                             I   N=           3
           0           0           0
Atom Modified Types                        C   N=           3
                                    
Int Atom Modified Types                    I   N=           3
           0           0           0
Link Atoms                                 I   N=           3
           0           0           0
Atom Modified MM Charges                   R   N=           3
  0.00000000E+00  0.00000000E+00  0.00000000E+00
Link Distances                             R   N=          12
  0.00000000E+00  0.00000000E+00  0.00000000E+00  0.00000000E+00  0.00000000E+00
  0.00000000E+00  0.00000000E+00  0.00000000E+00  0.00000000E+00  0.00000000E+00
  0.00000000E+00  0.00000000E+00
MxBond                                     I                2
NBond                                      I   N=           3
           2           1           1
IBond                                      I   N=           6
           2           3           1           0           1           0
RBond                                      R   N=           6
  1.00000000E+00  1.00000000E+00  1.00000000E+00  0.00000000E+00  1.00000000E+00
  0.00000000E+00
Shell types                                I   N=           8
           0          -1          -1          -1           0           0
           0           0
Number of primitives per shell             I   N=           8
           3           3           2           1           2           1
           2           1
Shell to atom map                          I   N=           8
           1           1           1           1           2           2
           3           3
Primitive exponents                        R   N=          15
  1.21062000E+03  1.82747000E+02  3.96673000E+01  5.22236000E+01  1.19629000E+01
  3.28911000E+00  1.22384000E+00  4.57303000E-01  1.42269000E-01  5.44717800E+00
  8.24547240E-01  1.83191580E-01  5.44717800E+00  8.24547240E-01  1.83191580E-01
Contraction coefficients                   R   N=          15
  6.50070819E-02  3.82039893E-01  6.76544811E-01 -1.00309940E-01  6.50876610E-02
  9.81454412E-01 -2.86088854E-01  1.22805937E+00  1.00000000E+00  1.56284979E-01
  9.04690877E-01  1.00000000E+00  1.56284979E-01  9.04690877E-01  1.00000000E+00
P(S=P) Contraction coefficients            R   N=          15
  0.00000000E+00  0.00000000E+00  0.00000000E+00  1.09645970E-01  4.57648876E-01
  6.04260836E-01  1.64776995E-01  8.70854972E-01  1.00000000E+00  0.00000000E+00
  0.00000000E+00  0.00000000E+00  0.00000000E+00  0.00000000E+00  0.00000000E+00
Coordinates of each shell                  R   N=          24
  1.07977917E-32 -5.40321451E-18  1.94671319E-01  1.07977917E-32 -5.40321451E-18
  1.94671319E-01  1.07977917E-32 -5.40321451E-18  1.94671319E-01  1.07977917E-32
 -5.40321451E-18  1.94671319E-01  1.28392388E-32  1.81778125E+00 -1.55737055E+00
  1.28392388E-32  1.81778125E+00 -1.55737055E+00 -2.22606647E-16 -1.81778125E+00
 -1.55737055E+00 -2.22606647E-16 -1.81778125E+00 -1.55737055E+00
Alpha Orbital Energies                     R   N=          17
 -9.12053017E+01 -8.78321052E+00 -6.59035367E+00 -6.58944163E+00 -6.58774230E+00
 -8.30119040E-01 -7.60265876E-01 -7.60265876E-01  1.00000000E+03  1.00000000E+03
  1.00000000E+03  1.00000000E+03  1.00000000E+03  1.00000000E+03  1.00000000E+03
  1.00000000E+03  1.00000000E+03
Alpha MO coefficients                      R   N=         289
  9.94918684E-01  2.37976650E-02  2.37272013E-18 -5.49999407E-17  1.01276003E-04
 -2.93579798E-02 -6.77341616E-18  1.87091150E-17 -1.54728448E-04  5.65666205E-03
 -1.27507615E-18  1.14457180E-17 -2.47430110E-03 -2.60525018E-04 -3.19135873E-03
 -2.60525018E-04 -3.19135873E-03 -2.78213582E-01  1.04492058E+00 -3.54064168E-17
 -2.01164254E-18  1.39238418E-03  5.08735173E-02  1.83377318E-18 -5.10850891E-17
 -4.49644613E-03 -1.47629937E-01 -2.48602129E-17 -4.50784471E-17 -1.15678694E-04
 -4.10758068E-03 -4.51230815E-03 -4.10758068E-03 -4.51230815E-03  5.39855151E-17
 -5.24751173E-17  1.78999863E-17  9.79470813E-01 -2.58677304E-17  1.38409939E-16
 -4.10936101E-16  7.03079866E-02  8.94313998E-17  1.98448252E-16 -4.00862848E-16
 -3.22227571E-02  5.35119087E-17 -4.05015530E-03 -1.22938724E-02  4.05015530E-03
  1.22938724E-02 -4.32098903E-04  2.54938324E-03  2.21205883E-17 -5.41064309E-18
  9.79693555E-01 -5.84200740E-03 -3.41565490E-17 -1.35296791E-17  6.96769678E-02
 -6.51916105E-03 -3.50723528E-17 -1.35899748E-17 -3.32122127E-02  3.80061497E-03
  1.09719404E-02  3.80061497E-03  1.09719404E-02 -1.72123157E-17  8.05751663E-17
  9.81062138E-01  2.09449791E-16 -6.50122778E-17 -8.98330198E-17  6.56628148E-02
 -1.42516242E-16  1.42379713E-16 -1.13425451E-16 -3.90180978E-02 -1.16665672E-16
  1.91121718E-16  7.07727708E-17  2.56028063E-16  6.88132738E-17  9.00461929E-17
  4.14458266E-02 -2.47945995E-01  6.52874340E-17 -3.42426409E-16 -1.24612771E-01
  4.76662652E-01 -3.33163292E-16  9.78168768E-17  2.95055607E-01  5.82788095E-01
 -3.29503044E-16 -9.60956724E-17  2.29304044E-01 -3.46742357E-02 -1.28004251E-01
 -3.46742357E-02 -1.28004251E-01  1.19853289E-02 -6.90586759E-02  9.29900933E-17
 -1.26518995E-01  1.01610915E-01  1.78933526E-01  8.83759944E-18  3.16149475E-01
 -2.48952646E-01  5.24664289E-02 -2.86262694E-17  1.47879937E-01 -1.52629680E-01
  2.98255356E-01  3.13509137E-01 -2.56629673E-02 -4.16392018E-02 -1.19853289E-02
  6.90586759E-02  5.79461856E-17 -1.26518995E-01 -1.01610915E-01 -1.78933526E-01
  4.98999454E-17  3.16149475E-01  2.48952646E-01 -5.24664289E-02  2.17162817E-17
  1.47879937E-01  1.52629680E-01  2.56629673E-02  4.16392018E-02 -2.98255356E-01
 -3.13509137E-01  2.66896960E-17 -1.30303479E-16 -2.36537250E-01  6.83029395E-16
 -2.21416292E-18  3.01252833E-16  5.60145993E-01  1.03143588E-16  1.48598938E-16
  3.34143757E-16  5.73001156E-01 -4.89715338E-17  1.25215782E-16  3.34476050E-18
 -1.31952763E-16 -1.49081184E-17  6.17524895E-19  2.91653173E-02 -1.74353184E-01
  6.01840535E-17  1.86239287E-01  1.60299841E-01  3.83354896E-01  1.73432150E-17
 -5.00355081E-01 -4.27532375E-01  3.00837534E-01  9.63181785E-18 -3.35390911E-01
 -3.53443629E-01 -2.37525751E-03 -5.12805815E-02 -6.00264193E-01 -7.32084845E-01
 -2.91653173E-02  1.74353184E-01 -2.59854220E-16  1.86239287E-01 -1.60299841E-01
 -3.83354896E-01 -1.44534832E-17 -5.00355081E-01  4.27532375E-01 -3.00837534E-01
  3.74915614E-17 -3.35390911E-01  3.53443629E-01  6.00264193E-01  7.32084845E-01
  2.37525751E-03  5.12805815E-02  9.36089534E-18 -9.21606915E-17 -9.38874628E-19
 -2.91334056E-01  1.31987699E-16 -2.73439518E-16  8.40191485E-18  1.11433284E+00
 -2.42031830E-16  8.81672234E-16 -4.46790474E-17 -1.77264999E+00 -8.53974386E-16
 -4.87230990E-02  7.23000852E-01  4.87230990E-02 -7.23000852E-01  2.16517055E-02
 -1.25038673E-01 -3.25758669E-17  1.07301596E-16 -3.13625181E-01  3.10216899E-01
  1.86584270E-16 -3.67721477E-16  1.16541237E+00  3.42422929E-01 -1.70423294E-16
  1.98765665E-16 -1.60727831E+00 -1.21191989E-02 -5.44256850E-01 -1.21191989E-02
 -5.44256850E-01  8.60726816E-18 -2.46545223E-17 -3.51643939E-01  1.25173866E-17
  4.72805992E-17  1.54755243E-16  1.25077187E+00 -3.72028945E-17 -1.85304244E-16
 -3.30658178E-16 -1.17332997E+00  2.07098135E-17  3.39936718E-16  3.39184180E-17
  1.51678424E-16  6.84707427E-17  1.24378787E-16  5.60854469E-02 -2.83769206E-01
  2.25791274E-17  1.61074518E-16  2.51559095E-02  1.99832693E+00 -1.13383035E-16
 -3.16998008E-16 -1.83953125E-01 -3.47262390E+00  1.03232539E-16 -8.04959940E-16
  1.38587918E+00 -1.20750420E-01  1.48296434E+00 -1.20750420E-01  1.48296434E+00
  1.31295953E-02 -6.43028967E-02  6.36415696E-17 -2.05115752E-02  9.80013972E-03
  2.71012301E-01 -5.91603610E-17  6.48130064E-02 -3.91191516E-02  2.92297177E-01
  1.96599685E-17  3.88983220E-01 -2.32461080E-01  1.17583961E+00 -1.76526597E+00
 -1.96079227E-02  2.10507601E-01  1.31295953E-02 -6.43028967E-02  1.27919565E-17
  2.05115752E-02  9.80013972E-03  2.71012301E-01 -6.71910368E-17 -6.48130064E-02
 -3.91191516E-02  2.92297177E-01  9.03121159E-17 -3.88983220E-01 -2.32461080E-01
 -1.96079227E-02  2.10507601E-01  1.17583961E+00 -1.76526597E+00
Total SCF Density                          R   N=         153
  2.13905527E+00 -5.60272778E-01  2.33723845E+00  0.00000000E+00  0.00000000E+00
  2.03732714E+00  1.87433637E-19 -1.06626512E-18  1.34815096E-31  1.97752103E+00
 -6.75300844E-03  3.84162495E-02  1.59933270E-31 -5.18566660E-19  1.99620436E+00
 -3.26287408E-02 -2.04850012E-01 -4.09716093E-33  1.41938250E-18 -5.11386438E-02
  6.06575955E-01  0.00000000E+00  0.00000000E+00 -1.36958041E-01 -7.70371978E-34
 -4.22034548E-33  0.00000000E+00  6.36040700E-01 -4.19236681E-19  2.23741266E-18
 -7.70371978E-34 -9.97208707E-03  1.04060201E-18 -2.25329802E-18  2.77333912E-32
  3.78346441E-01  1.51045933E-02 -8.06112865E-02 -3.80273131E-33  1.04060201E-18
 -4.74637255E-02  8.11836171E-02  3.62689478E-32 -2.06345519E-18  4.52690249E-01
  1.50230369E-01 -6.34751588E-01 -8.39854463E-33  2.90951404E-18 -1.04826291E-01
  5.90371475E-01  2.24921799E-32 -7.79198254E-18  2.80735757E-01  7.44417302E-01
  0.00000000E+00  0.00000000E+00 -3.46869320E-01 -5.39260384E-33 -1.06887362E-32
  0.00000000E+00  6.36888418E-01  6.16297582E-33  1.96256396E-32  0.00000000E+00
  6.59644506E-01  3.00271675E-20  1.29002552E-18 -1.00148357E-32 -1.36439681E-01
  1.96473619E-18 -2.62261800E-18  1.23259516E-32  1.57965437E-01 -3.93201039E-18
 -6.16569075E-18  9.24446373E-33  7.48021071E-02 -1.08184272E-03 -4.64780674E-02
 -1.66027358E-32  1.96473619E-18 -2.07226762E-01  9.44897717E-02  2.40060452E-32
 -3.93201039E-18  2.99631041E-01  2.22142421E-01  1.73353389E-32 -3.92931876E-18
  2.16370735E-01  1.47368846E-02 -6.53215413E-02 -2.69630192E-33 -1.02439351E-01
  8.68646247E-02  7.02939945E-02  4.62223187E-33  1.92494955E-01 -1.61296903E-01
  8.32100792E-04  2.31111593E-33  8.68832448E-02 -1.07248847E-01  1.81619876E-01
 -2.15678021E-02  6.69307985E-02 -2.31111593E-33 -9.83553687E-02  7.34119118E-02
 -3.13320660E-02  6.16297582E-33  2.42655128E-01 -1.96493903E-01 -1.25439564E-01
  2.69630192E-33  1.07464227E-01 -1.34082330E-01  1.99769244E-01  2.47133524E-01
  1.47368846E-02 -6.53215413E-02  2.69630192E-33  1.02439351E-01  8.68646247E-02
  7.02939945E-02 -4.62223187E-33 -1.92494955E-01 -1.61296903E-01  8.32100792E-04
 -2.31111593E-33 -8.68832448E-02 -1.07248847E-01 -2.38442675E-02 -5.62034276E-02
  1.81619876E-01 -2.15678021E-02  6.69307985E-02  2.31111593E-33  9.83553687E-02
  7.34119118E-02 -3.13320660E-02 -6.16297582E-33 -2.42655128E-01 -1.96493903E-01
 -1.25439564E-01 -2.69630192E-33 -1.07464227E-01 -1.34082330E-01 -5.62034276E-02
 -7.26774446E-02  1.99769244E-01  2.47133524E-01
Cartesian Gradient                         R   N=           9
  0.00000000E+00  0.00000000E+00  0.00000000E+00  0.00000000E+00  0.00000000E+00
  0.00000000E+00  0.00000000E+00  0.00000000E+00  0.00000000E+00
Dipole Moment                              R   N=           3
  1.02287520E-16 -5.12820119E-01  4.94274171E-01
QEq coupling tensors                       R   N=          18
  2.51370127E+00 -4.11560834E-17 -1.95565659E+00 -3.83571379E-17 -1.38777878E-17
 -5.58044676E-01  1.72558195E-01 -1.30158025E-18 -1.08090108E-01  2.22650186E-19
  2.18707382E-01 -6.44680871E-02  1.72558195E-01 -4.45182915E-17 -1.08090108E-01
 -4.10685217E-17 -2.18707382E-01 -6.44680871E-02
Mulliken Charges                           R   N=           3
 -1.58177166E-01  7.90885830E-02  7.90885830E-02
NPA Charges                                R   N=           3
 -2.66452566E-01  1.33226283E-01  1.33226283E-01
