 Entering Link 1 = C:\G03W\l1.exe PID=      3096.
  
 Copyright (c) 1988,1990,1992,1993,1995,1998,2003, Gaussian, Inc.
                  All Rights Reserved.
  
 This is the Gaussian(R) 03 program.  It is based on the
 the Gaussian(R) 98 system (copyright 1998, Gaussian, Inc.),
 the Gaussian(R) 94 system (copyright 1995, Gaussian, Inc.),
 the Gaussian 92(TM) system (copyright 1992, Gaussian, Inc.),
 the Gaussian 90(TM) system (copyright 1990, Gaussian, Inc.),
 the Gaussian 88(TM) system (copyright 1988, Gaussian, Inc.),
 the Gaussian 86(TM) system (copyright 1986, Carnegie Mellon
 University), and the Gaussian 82(TM) system (copyright 1983,
 Carnegie Mellon University). Gaussian is a federally registered
 trademark of Gaussian, Inc.
  
 This software contains proprietary and confidential information,
 including trade secrets, belonging to Gaussian, Inc.
  
 This software is provided under written license and may be
 used, copied, transmitted, or stored only in accord with that
 written license.
  
 The following legend is applicable only to US Government
 contracts under DFARS:
  
                    RESTRICTED RIGHTS LEGEND
  
 Use, duplication or disclosure by the US Government is subject
 to restrictions as set forth in subparagraph (c)(1)(ii) of the
 Rights in Technical Data and Computer Software clause at DFARS
 252.227-7013.
  
 Gaussian, Inc.
 Carnegie Office Park, Building 6, Pittsburgh, PA 15106 USA
  
 The following legend is applicable only to US Government
 contracts under FAR:
  
                    RESTRICTED RIGHTS LEGEND
  
 Use, reproduction and disclosure by the US Government is subject
 to restrictions as set forth in subparagraph (c) of the
 Commercial Computer Software - Restricted Rights clause at FAR
 52.227-19.
  
 Gaussian, Inc.
 Carnegie Office Park, Building 6, Pittsburgh, PA 15106 USA
  
  
 ---------------------------------------------------------------
 Warning -- This program may not be used in any manner that
 competes with the business of Gaussian, Inc. or will provide
 assistance to any competitor of Gaussian, Inc.  The licensee
 of this program is prohibited from giving any competitor of
 Gaussian, Inc. access to this program.  By using this program,
 the user acknowledges that Gaussian, Inc. is engaged in the
 business of creating and licensing software in the field of
 computational chemistry and represents and warrants to the
 licensee that it is not a competitor of Gaussian, Inc. and that
 it will not use this program in any manner prohibited above.
 ---------------------------------------------------------------
  

 Cite this work as:
 Gaussian 03, Revision B.03,
 M. J. Frisch, G. W. Trucks, H. B. Schlegel, G. E. Scuseria, 
 M. A. Robb, J. R. Cheeseman, J. A. Montgomery, Jr., T. Vreven, 
 K. N. Kudin, J. C. Burant, J. M. Millam, S. S. Iyengar, J. Tomasi, 
 V. Barone, B. Mennucci, M. Cossi, G. Scalmani, N. Rega, 
 G. A. Petersson, H. Nakatsuji, M. Hada, M. Ehara, K. Toyota, 
 R. Fukuda, J. Hasegawa, M. Ishida, T. Nakajima, Y. Honda, O. Kitao, 
 H. Nakai, M. Klene, X. Li, J. E. Knox, H. P. Hratchian, J. B. Cross, 
 C. Adamo, J. Jaramillo, R. Gomperts, R. E. Stratmann, O. Yazyev, 
 A. J. Austin, R. Cammi, C. Pomelli, J. W. Ochterski, P. Y. Ayala, 
 K. Morokuma, G. A. Voth, P. Salvador, J. J. Dannenberg, 
 V. G. Zakrzewski, S. Dapprich, A. D. Daniels, M. C. Strain, 
 O. Farkas, D. K. Malick, A. D. Rabuck, K. Raghavachari, 
 J. B. Foresman, J. V. Ortiz, Q. Cui, A. G. Baboul, S. Clifford, 
 J. Cioslowski, B. B. Stefanov, G. Liu, A. Liashenko, P. Piskorz, 
 I. Komaromi, R. L. Martin, D. J. Fox, T. Keith, M. A. Al-Laham, 
 C. Y. Peng, A. Nanayakkara, M. Challacombe, P. M. W. Gill, 
 B. Johnson, W. Chen, M. W. Wong, C. Gonzalez, and J. A. Pople, 
 Gaussian, Inc., Pittsburgh PA, 2003.
 
 *********************************************
 Gaussian 03:  x86-Win32-G03RevB.03 4-May-2003
                  14-Jun-2017 
 *********************************************
 %chk=H2S-SINGLETE-UHF.chk
 %mem=6MW
 %nproc=1
 Will use up to    1 processors via shared memory.
 Default route:  MaxDisk=2000MB
 ---------------------------------
 # uhf/sto-3g iop(3/33=6) pop=full
 ---------------------------------
 1/38=1/1;
 2/17=6,18=5,40=1/2;
 3/6=3,11=2,16=1,25=1,30=1,33=6/1,2,3;
 4/7=2/1;
 5/5=2,32=1,38=5/2;
 6/7=3,28=1/1;
 99/5=1,9=1/99;
 ---------------
 H2S-SINGLET-UHF
 ---------------
 Symbolic Z-matrix:
 Charge =  0 Multiplicity = 1
 S1                    0.        0.        0.103 
 H2                    0.        0.9616   -0.8239 
 H3                    0.       -0.9616   -0.8239 
 
                          Input orientation:                          
 ---------------------------------------------------------------------
 Center     Atomic     Atomic              Coordinates (Angstroms)
 Number     Number      Type              X           Y           Z
 ---------------------------------------------------------------------
    1         16             0        0.000000    0.000000    0.103000
    2          1             0        0.000000    0.961600   -0.823900
    3          1             0        0.000000   -0.961600   -0.823900
 ---------------------------------------------------------------------
                    Distance matrix (angstroms):
                    1          2          3
     1  S    0.000000
     2  H    1.335597   0.000000
     3  H    1.335597   1.923200   0.000000
 Stoichiometry    H2S
 Framework group  C2V[C2(S),SGV(H2)]
 Deg. of freedom     2
 Full point group                 C2V     NOp   4
 Largest Abelian subgroup         C2V     NOp   4
 Largest concise Abelian subgroup C2      NOp   2
                         Standard orientation:                         
 ---------------------------------------------------------------------
 Center     Atomic     Atomic              Coordinates (Angstroms)
 Number     Number      Type              X           Y           Z
 ---------------------------------------------------------------------
    1         16             0        0.000000    0.000000    0.102989
    2          1             0        0.000000    0.961600   -0.823911
    3          1             0        0.000000   -0.961600   -0.823911
 ---------------------------------------------------------------------
 Rotational constants (GHZ):    310.2326978    271.1522099    144.6894828
 Standard basis: STO-3G (5D, 7F)
                         Coordinates in L301:                         
 ---------------------------------------------------------------------
 Center     Atomic     Atomic              Coordinates (Angstroms)
 Number     Number      Type              X           Y           Z
 ---------------------------------------------------------------------
    1         16             0        0.000000    0.000000    0.102989
    2          1             0        0.000000    0.961600   -0.823911
    3          1             0        0.000000   -0.961600   -0.823911
 ---------------------------------------------------------------------
 Electric field displacement of shell     1 is  0.00D+00
 Electric field displacement of shell     2 is  0.00D+00
 Electric field displacement of shell     3 is  0.00D+00
 Electric field displacement of shell     4 is  0.00D+00
 Electric field displacement of shell     5 is  0.00D+00
 LdAtmC:  AtmChg=    16.000000     1.000000     1.000000
 AtZEff= -13.6000000  -1.0000000  -1.0000000
 NEqShl: 
              1            2            3            4
     1            1            1            1            1
     2            2            2            2            2
     3            3            3            3            3
     4            4            5            4            5
     5            5            4            5            4
 NEqBas: 
              1            2            3            4
     1            1            1            1            1
     2            2            2            2            2
     3            3           -3           -3            3
     4            4           -4            4           -4
     5            5            5            5            5
     6            6            6            6            6
     7            7           -7           -7            7
     8            8           -8            8           -8
     9            9            9            9            9
    10           10           11           10           11
    11           11           10           11           10
 NEqShl: 
              1            2            3            4
     1            1            1            1            1
     2            2            2            2            2
     3            3            3            3            3
     4            4            5            4            5
     5            5            4            5            4
 NEqBas: 
              1            2            3            4
     1            1            1            1            1
     2            2            2            2            2
     3            3           -3           -3            3
     4            4           -4            4           -4
     5            5            5            5            5
     6            6            6            6            6
     7            7           -7           -7            7
     8            8           -8            8           -8
     9            9            9            9            9
    10           10           11           10           11
    11           11           10           11           10
 There are     6 symmetry adapted basis functions of A1  symmetry.
   1         1   1   1   1
   2         2   2   2   2
   3         5   5   5   5
   4         6   6   6   6
   5         9   9   9   9
   6        10  11  11  10
 There are     0 symmetry adapted basis functions of A2  symmetry.
 There are     2 symmetry adapted basis functions of B1  symmetry.
   7         3   3   3   3
   8         7   7   7   7
 There are     3 symmetry adapted basis functions of B2  symmetry.
   9         4   4   4   4
  10         8   8   8   8
  11        10 -11 -11  10
 Order= 1 2 4 3
 Reordered character table:
              1            2            3            4
     1            1            1            1            1
     2            1            1           -1           -1
     3            1           -1           -1            1
     4            1           -1            1           -1
 Integral buffers will be    262144 words long.
 Raffenetti 2 integral format.
 Two-electron integral symmetry is turned on.
    11 basis functions,    33 primitive gaussians,    11 cartesian basis functions
     9 alpha electrons        9 beta electrons
       nuclear repulsion energy        12.9538864084 Hartrees.
 NAtoms=    3 NActive=    3 NUniq=    2 SFac= 2.76D+00 NAtFMM=   60 Big=F
 Leave Link  301 at Wed Jun 14 10:46:01 2017, MaxMem=    6291456 cpu:       0.0
 NPDir=0 NMtPBC=     1 NCelOv=     1 NCel=       1 NClECP=     1 NCelD=      1
         NCelK=      1 NCelE2=     1 NClLst=     1 CellRange=     0.0.
 One-electron integrals computed using PRISM.
 Entering OneElI...
 OneElI was handed  6251279 working-precision words.
 Calculate overlap and kinetic energy integrals
    NBasis =  11  MinDer = 0  MaxDer = 0
 Requested accuracy = 0.1000D-12
  NShlT=       6 NTypes=       3  LenT1=       6  LenC1=       7
  LenT2=       5  LenN2=      82  LenC2=      17 LenP2D=     136
 LenP2C=     271
 IType=       1 ShlT= 0 ShlC= 0 T1C1St=       1
   ISh=       1 C1NPrm=   3 C1ESt=       1 C1CSt=       1
     C1SMap=       1 C1AOS=       1 C1Cent=     1
     CentXYZ=      0.000000      0.000000      0.194621
     IPrm=       1 P1Exp= 5.33D+02 P1CMax= 1.22D+01
     IPrm=       2 P1Exp= 9.71D+01 P1CMax= 1.18D+01
     IPrm=       3 P1Exp= 2.63D+01 P1CMax= 3.68D+00
   ISh=       2 C1NPrm=   3 C1ESt=       4 C1CSt=       4
     C1SMap=       4 C1AOS=      10 C1Cent=     2
     CentXYZ=      0.000000      1.817161     -1.556966
     IPrm=       4 P1Exp= 3.43D+00 P1CMax= 2.77D-01
     IPrm=       5 P1Exp= 6.24D-01 P1CMax= 2.68D-01
     IPrm=       6 P1Exp= 1.69D-01 P1CMax= 8.35D-02
   ISh=       3 C1NPrm=   3 C1ESt=       7 C1CSt=       7
     C1SMap=       5 C1AOS=      11 C1Cent=     3
     CentXYZ=      0.000000     -1.817161     -1.556966
     IPrm=       7 P1Exp= 3.43D+00 P1CMax= 2.77D-01
     IPrm=       8 P1Exp= 6.24D-01 P1CMax= 2.68D-01
     IPrm=       9 P1Exp= 1.69D-01 P1CMax= 8.35D-02
 IType=       2 ShlT= 1 ShlC= 0 T1C1St=       4
   ISh=       4 C1NPrm=   3 C1ESt=      10 C1CSt=      10
     C1SMap=       2 C1AOS=       2 C1Cent=     1
     CentXYZ=      0.000000      0.000000      0.194621
     IPrm=      10 P1Exp= 3.33D+01 P1CMax= 1.78D+01
     IPrm=      11 P1Exp= 7.75D+00 P1CMax= 1.12D+01
     IPrm=      12 P1Exp= 2.52D+00 P1CMax= 1.77D+00
   ISh=       5 C1NPrm=   3 C1ESt=      13 C1CSt=      16
     C1SMap=       3 C1AOS=       6 C1Cent=     1
     CentXYZ=      0.000000      0.000000      0.194621
     IPrm=      13 P1Exp= 2.03D+00 P1CMax= 2.66D-01
     IPrm=      14 P1Exp= 5.66D-01 P1CMax= 4.17D-01
     IPrm=      15 P1Exp= 2.22D-01 P1CMax= 2.07D-01
 IType=       3 ShlT= 0 ShlC= 0 T1C1St=       6
   ISh=       6 C1NPrm=   1 C1ESt=      16 C1CSt=      22
     C1SMap=       1 C1AOS=      12 C1Cent=     6
     CentXYZ=      0.000000      0.000000      0.000000
     IPrm=      16 P1Exp= 5.00D-01 P1CMax= 1.00D+00
 IJTC=   1 IType= 1 JType= 1 T2N2St=     1
   IJTN=   1 NPrm=     9     0 C2St=     1 PDSt=     1 PCSt=     1
   IJTN=   2 NPrm=     9     0 C2St=     1 PDSt=     1 PCSt=     1
    IJShl=     1 C2ShlIJ=     1     1 C2CelJ=     1 C2LocIJ=   1   1 C2FPrm=     9 C2KMax= 0.42D+01 0.94D+06
       C2CDif=      0.000000      0.000000      0.000000
       IJP=       1 A= 0.106625D+04 B= 0.106625D+04 U= 0.238174D-01
                    C= 0.100000D+01
         P2P=  -0.599722D-33 0.119944D-32 0.194621D+00
         P2PMA= 0.000000D+00 0.000000D+00 0.000000D+00
         P2PMB= 0.000000D+00 0.000000D+00 0.000000D+00
       IJP=       2 A= 0.106625D+04 B= 0.194219D+03 U= 0.506906D-01
                    C= 0.100000D+01
         P2P=  -0.599722D-33 0.119944D-32 0.194621D+00
         P2PMA= 0.000000D+00 0.000000D+00 0.000000D+00
         P2PMB= 0.000000D+00 0.000000D+00 0.000000D+00
       IJP=       3 A= 0.106625D+04 B= 0.525633D+02 U= 0.188914D-01
                    C= 0.100000D+01
         P2P=  -0.599722D-33 0.119944D-32 0.194621D+00
         P2PMA= 0.000000D+00 0.000000D+00 0.000000D+00
         P2PMB= 0.000000D+00 0.000000D+00 0.000000D+00
       IJP=       4 A= 0.194219D+03 B= 0.106625D+04 U= 0.506906D-01
                    C= 0.100000D+01
         P2P=  -0.599722D-33 0.119944D-32 0.194621D+00
         P2PMA= 0.000000D+00 0.000000D+00 0.000000D+00
         P2PMB= 0.000000D+00 0.000000D+00 0.000000D+00
       IJP=       5 A= 0.194219D+03 B= 0.194219D+03 U= 0.286576D+00
                    C= 0.100000D+01
         P2P=  -0.599722D-33 0.119944D-32 0.194621D+00
         P2PMA= 0.000000D+00 0.000000D+00 0.000000D+00
         P2PMB= 0.000000D+00 0.000000D+00 0.000000D+00
       IJP=       6 A= 0.194219D+03 B= 0.525633D+02 U= 0.176371D+00
                    C= 0.100000D+01
         P2P=  -0.599722D-33 0.119944D-32 0.194621D+00
         P2PMA= 0.000000D+00 0.000000D+00 0.000000D+00
         P2PMB= 0.000000D+00 0.000000D+00 0.000000D+00
       IJP=       7 A= 0.525633D+02 B= 0.106625D+04 U= 0.188914D-01
                    C= 0.100000D+01
         P2P=  -0.599722D-33 0.119944D-32 0.194621D+00
         P2PMA= 0.000000D+00 0.000000D+00 0.000000D+00
         P2PMB= 0.000000D+00 0.000000D+00 0.000000D+00
       IJP=       8 A= 0.525633D+02 B= 0.194219D+03 U= 0.176371D+00
                    C= 0.100000D+01
         P2P=  -0.599722D-33 0.119944D-32 0.194621D+00
         P2PMA= 0.000000D+00 0.000000D+00 0.000000D+00
         P2PMB= 0.000000D+00 0.000000D+00 0.000000D+00
       IJP=       9 A= 0.525633D+02 B= 0.525633D+02 U= 0.197700D+00
                    C= 0.100000D+01
         P2P=  -0.599722D-33 0.119944D-32 0.194621D+00
         P2PMA= 0.000000D+00 0.000000D+00 0.000000D+00
         P2PMB= 0.000000D+00 0.000000D+00 0.000000D+00
    IJShl=     2 C2ShlIJ=     2     1 C2CelJ=     1 C2LocIJ=   1   1 C2FPrm=     9 C2KMax= 0.24D-01 0.11D+04
       C2CDif=      0.000000      1.817161     -1.751587
       IJP=      10 A= 0.685050D+01 B= 0.106625D+04 U= 0.581646D-12
                    C= 0.100000D+01
         P2P=  -0.595893D-33 0.116004D-01 0.183439D+00
         P2PMA= 0.410839D-32 0.124485D+02-0.119993D+02
         P2PMB=-0.639454D-30-0.193755D+04 0.186763D+04
       IJP=      11 A= 0.685050D+01 B= 0.194219D+03 U= 0.126898D-10
                    C= 0.100000D+01
         P2P=  -0.579289D-33 0.619112D-01 0.134944D+00
         P2PMA= 0.410839D-32 0.124485D+02-0.119993D+02
         P2PMB=-0.116477D-30-0.352927D+03 0.340192D+03
       IJP=      12 A= 0.685050D+01 B= 0.525633D+02 U= 0.144900D-09
                    C= 0.100000D+01
         P2P=  -0.530573D-33 0.209522D+00-0.734004D-02
         P2PMA= 0.410839D-32 0.124485D+02-0.119993D+02
         P2PMB=-0.315233D-31-0.955159D+02 0.920691D+02
       IJP=      13 A= 0.124783D+01 B= 0.106625D+04 U= 0.278628D-04
                    C= 0.100000D+01
         P2P=  -0.599021D-33 0.212413D-02 0.192573D+00
         P2PMA= 0.748349D-33 0.226750D+01-0.218568D+01
         P2PMB=-0.639454D-30-0.193755D+04 0.186763D+04
       IJP=      14 A= 0.124783D+01 B= 0.194219D+03 U= 0.351127D-03
                    C= 0.100000D+01
         P2P=  -0.595893D-33 0.116004D-01 0.183439D+00
         P2PMA= 0.748349D-33 0.226750D+01-0.218568D+01
         P2PMB=-0.116477D-30-0.352927D+03 0.340192D+03
       IJP=      15 A= 0.124783D+01 B= 0.525633D+02 U= 0.809933D-03
                    C= 0.100000D+01
         P2P=  -0.585815D-33 0.421382D-01 0.154003D+00
         P2PMA= 0.748349D-33 0.226750D+01-0.218568D+01
         P2PMB=-0.315233D-31-0.955159D+02 0.920691D+02
       IJP=      16 A= 0.337711D+00 B= 0.106625D+04 U= 0.157149D-03
                    C= 0.100000D+01
         P2P=  -0.599532D-33 0.575362D-03 0.194066D+00
         P2PMA= 0.202532D-33 0.613675D+00-0.591530D+00
         P2PMB=-0.639454D-30-0.193755D+04 0.186763D+04
       IJP=      17 A= 0.337711D+00 B= 0.194219D+03 U= 0.195387D-02
                    C= 0.100000D+01
         P2P=  -0.598681D-33 0.315422D-02 0.191580D+00
         P2PMA= 0.202532D-33 0.613675D+00-0.591530D+00
         P2PMB=-0.116477D-30-0.352927D+03 0.340192D+03
       IJP=      18 A= 0.337711D+00 B= 0.525633D+02 U= 0.431636D-02
                    C= 0.100000D+01
         P2P=  -0.595893D-33 0.116004D-01 0.183439D+00
         P2PMA= 0.202532D-33 0.613675D+00-0.591530D+00
         P2PMB=-0.315233D-31-0.955159D+02 0.920691D+02
    IJShl=     3 C2ShlIJ=     2     2 C2CelJ=     1 C2LocIJ=   1   1 C2FPrm=     9 C2KMax= 0.34D+00 0.31D+01
       C2CDif=      0.000000      0.000000      0.000000
       IJP=      19 A= 0.685050D+01 B= 0.685050D+01 U= 0.238174D-01
                    C= 0.100000D+01
         P2P=   0.000000D+00 0.181716D+01-0.155697D+01
         P2PMA= 0.000000D+00 0.000000D+00 0.000000D+00
         P2PMB= 0.000000D+00 0.000000D+00 0.000000D+00
       IJP=      20 A= 0.685050D+01 B= 0.124783D+01 U= 0.506906D-01
                    C= 0.100000D+01
         P2P=   0.000000D+00 0.181716D+01-0.155697D+01
         P2PMA= 0.000000D+00 0.000000D+00 0.000000D+00
         P2PMB= 0.000000D+00 0.000000D+00 0.000000D+00
       IJP=      21 A= 0.685050D+01 B= 0.337711D+00 U= 0.188914D-01
                    C= 0.100000D+01
         P2P=   0.000000D+00 0.181716D+01-0.155697D+01
         P2PMA= 0.000000D+00 0.000000D+00 0.000000D+00
         P2PMB= 0.000000D+00 0.000000D+00 0.000000D+00
       IJP=      22 A= 0.124783D+01 B= 0.685050D+01 U= 0.506906D-01
                    C= 0.100000D+01
         P2P=   0.000000D+00 0.181716D+01-0.155697D+01
         P2PMA= 0.000000D+00 0.000000D+00 0.000000D+00
         P2PMB= 0.000000D+00 0.000000D+00 0.000000D+00
       IJP=      23 A= 0.124783D+01 B= 0.124783D+01 U= 0.286576D+00
                    C= 0.100000D+01
         P2P=   0.000000D+00 0.181716D+01-0.155697D+01
         P2PMA= 0.000000D+00 0.000000D+00 0.000000D+00
         P2PMB= 0.000000D+00 0.000000D+00 0.000000D+00
       IJP=      24 A= 0.124783D+01 B= 0.337711D+00 U= 0.176371D+00
                    C= 0.100000D+01
         P2P=   0.000000D+00 0.181716D+01-0.155697D+01
         P2PMA= 0.000000D+00 0.000000D+00 0.000000D+00
         P2PMB= 0.000000D+00 0.000000D+00 0.000000D+00
       IJP=      25 A= 0.337711D+00 B= 0.685050D+01 U= 0.188914D-01
                    C= 0.100000D+01
         P2P=   0.000000D+00 0.181716D+01-0.155697D+01
         P2PMA= 0.000000D+00 0.000000D+00 0.000000D+00
         P2PMB= 0.000000D+00 0.000000D+00 0.000000D+00
       IJP=      26 A= 0.337711D+00 B= 0.124783D+01 U= 0.176371D+00
                    C= 0.100000D+01
         P2P=   0.000000D+00 0.181716D+01-0.155697D+01
         P2PMA= 0.000000D+00 0.000000D+00 0.000000D+00
         P2PMB= 0.000000D+00 0.000000D+00 0.000000D+00
       IJP=      27 A= 0.337711D+00 B= 0.337711D+00 U= 0.197700D+00
                    C= 0.100000D+01
         P2P=   0.000000D+00 0.181716D+01-0.155697D+01
         P2PMA= 0.000000D+00 0.000000D+00 0.000000D+00
         P2PMB= 0.000000D+00 0.000000D+00 0.000000D+00
    IJShl=     4 C2ShlIJ=     3     1 C2CelJ=     1 C2LocIJ=   1   1 C2FPrm=     9 C2KMax= 0.24D-01 0.11D+04
       C2CDif=      0.000000     -1.817161     -1.751587
       IJP=      28 A= 0.685050D+01 B= 0.106625D+04 U= 0.581646D-12
                    C= 0.100000D+01
         P2P=  -0.142060D-17-0.116004D-01 0.183439D+00
         P2PMA=-0.152445D-14-0.124485D+02-0.119993D+02
         P2PMB= 0.237274D-12 0.193755D+04 0.186763D+04
       IJP=      29 A= 0.685050D+01 B= 0.194219D+03 U= 0.126898D-10
                    C= 0.100000D+01
         P2P=  -0.758169D-17-0.619112D-01 0.134944D+00
         P2PMA=-0.152445D-14-0.124485D+02-0.119993D+02
         P2PMB= 0.432197D-13 0.352927D+03 0.340192D+03
       IJP=      30 A= 0.685050D+01 B= 0.525633D+02 U= 0.144900D-09
                    C= 0.100000D+01
         P2P=  -0.256581D-16-0.209522D+00-0.734004D-02
         P2PMA=-0.152445D-14-0.124485D+02-0.119993D+02
         P2PMB= 0.116969D-13 0.955159D+02 0.920691D+02
       IJP=      31 A= 0.124783D+01 B= 0.106625D+04 U= 0.278628D-04
                    C= 0.100000D+01
         P2P=  -0.260122D-18-0.212413D-02 0.192573D+00
         P2PMA=-0.277680D-15-0.226750D+01-0.218568D+01
         P2PMB= 0.237274D-12 0.193755D+04 0.186763D+04
       IJP=      32 A= 0.124783D+01 B= 0.194219D+03 U= 0.351127D-03
                    C= 0.100000D+01
         P2P=  -0.142060D-17-0.116004D-01 0.183439D+00
         P2PMA=-0.277680D-15-0.226750D+01-0.218568D+01
         P2PMB= 0.432197D-13 0.352927D+03 0.340192D+03
       IJP=      33 A= 0.124783D+01 B= 0.525633D+02 U= 0.809933D-03
                    C= 0.100000D+01
         P2P=  -0.516027D-17-0.421382D-01 0.154003D+00
         P2PMA=-0.277680D-15-0.226750D+01-0.218568D+01
         P2PMB= 0.116969D-13 0.955159D+02 0.920691D+02
       IJP=      34 A= 0.337711D+00 B= 0.106625D+04 U= 0.157149D-03
                    C= 0.100000D+01
         P2P=  -0.704592D-19-0.575362D-03 0.194066D+00
         P2PMA=-0.751510D-16-0.613675D+00-0.591530D+00
         P2PMB= 0.237274D-12 0.193755D+04 0.186763D+04
       IJP=      35 A= 0.337711D+00 B= 0.194219D+03 U= 0.195387D-02
                    C= 0.100000D+01
         P2P=  -0.386268D-18-0.315422D-02 0.191580D+00
         P2PMA=-0.751510D-16-0.613675D+00-0.591530D+00
         P2PMB= 0.432197D-13 0.352927D+03 0.340192D+03
       IJP=      36 A= 0.337711D+00 B= 0.525633D+02 U= 0.431636D-02
                    C= 0.100000D+01
         P2P=  -0.142060D-17-0.116004D-01 0.183439D+00
         P2PMA=-0.751510D-16-0.613675D+00-0.591530D+00
         P2PMB= 0.116969D-13 0.955159D+02 0.920691D+02
    IJShl=     5 C2ShlIJ=     3     2 C2CelJ=     1 C2LocIJ=   1   1 C2FPrm=     9 C2KMax= 0.52D-01 0.59D-01
       C2CDif=      0.000000     -3.634321      0.000000
       IJP=      37 A= 0.685050D+01 B= 0.685050D+01 U= 0.357094D-11
                    C= 0.100000D+01
         P2P=  -0.111265D-15 0.000000D+00-0.155697D+01
         P2PMA=-0.152445D-14-0.248969D+02 0.000000D+00
         P2PMB= 0.152445D-14 0.248969D+02 0.000000D+00
       IJP=      38 A= 0.685050D+01 B= 0.124783D+01 U= 0.475816D-04
                    C= 0.100000D+01
         P2P=  -0.188242D-15-0.125717D+01-0.155697D+01
         P2PMA=-0.152445D-14-0.248969D+02 0.000000D+00
         P2PMB= 0.277680D-15 0.453501D+01 0.000000D+00
       IJP=      39 A= 0.685050D+01 B= 0.337711D+00 U= 0.225511D-02
                    C= 0.100000D+01
         P2P=  -0.212076D-15-0.164642D+01-0.155697D+01
         P2PMA=-0.152445D-14-0.248969D+02 0.000000D+00
         P2PMB= 0.751510D-16 0.122735D+01 0.000000D+00
       IJP=      40 A= 0.124783D+01 B= 0.685050D+01 U= 0.475816D-04
                    C= 0.100000D+01
         P2P=  -0.342885D-16 0.125717D+01-0.155697D+01
         P2PMA=-0.277680D-15-0.453501D+01 0.000000D+00
         P2PMB= 0.152445D-14 0.248969D+02 0.000000D+00
       IJP=      41 A= 0.124783D+01 B= 0.124783D+01 U= 0.465335D-02
                    C= 0.100000D+01
         P2P=  -0.111265D-15 0.000000D+00-0.155697D+01
         P2PMA=-0.277680D-15-0.453501D+01 0.000000D+00
         P2PMB= 0.277680D-15 0.453501D+01 0.000000D+00
       IJP=      42 A= 0.124783D+01 B= 0.337711D+00 U= 0.304882D-01
                    C= 0.100000D+01
         P2P=  -0.175133D-15-0.104307D+01-0.155697D+01
         P2PMA=-0.277680D-15-0.453501D+01 0.000000D+00
         P2PMB= 0.751510D-16 0.122735D+01 0.000000D+00
       IJP=      43 A= 0.337711D+00 B= 0.685050D+01 U= 0.225511D-02
                    C= 0.100000D+01
         P2P=  -0.104548D-16 0.164642D+01-0.155697D+01
         P2PMA=-0.751510D-16-0.122735D+01 0.000000D+00
         P2PMB= 0.152445D-14 0.248969D+02 0.000000D+00
       IJP=      44 A= 0.337711D+00 B= 0.124783D+01 U= 0.304882D-01
                    C= 0.100000D+01
         P2P=  -0.473978D-16 0.104307D+01-0.155697D+01
         P2PMA=-0.751510D-16-0.122735D+01 0.000000D+00
         P2PMB= 0.277680D-15 0.453501D+01 0.000000D+00
       IJP=      45 A= 0.337711D+00 B= 0.337711D+00 U= 0.648194D-01
                    C= 0.100000D+01
         P2P=  -0.111265D-15 0.000000D+00-0.155697D+01
         P2PMA=-0.751510D-16-0.122735D+01 0.000000D+00
         P2PMB= 0.751510D-16 0.122735D+01 0.000000D+00
    IJShl=     6 C2ShlIJ=     3     3 C2CelJ=     1 C2LocIJ=   1   1 C2FPrm=     9 C2KMax= 0.34D+00 0.31D+01
       C2CDif=      0.000000      0.000000      0.000000
       IJP=      46 A= 0.685050D+01 B= 0.685050D+01 U= 0.238174D-01
                    C= 0.100000D+01
         P2P=  -0.222531D-15-0.181716D+01-0.155697D+01
         P2PMA= 0.000000D+00 0.000000D+00 0.000000D+00
         P2PMB= 0.000000D+00 0.000000D+00 0.000000D+00
       IJP=      47 A= 0.685050D+01 B= 0.124783D+01 U= 0.506906D-01
                    C= 0.100000D+01
         P2P=  -0.222531D-15-0.181716D+01-0.155697D+01
         P2PMA= 0.000000D+00 0.000000D+00 0.000000D+00
         P2PMB= 0.000000D+00 0.000000D+00 0.000000D+00
       IJP=      48 A= 0.685050D+01 B= 0.337711D+00 U= 0.188914D-01
                    C= 0.100000D+01
         P2P=  -0.222531D-15-0.181716D+01-0.155697D+01
         P2PMA= 0.000000D+00 0.000000D+00 0.000000D+00
         P2PMB= 0.000000D+00 0.000000D+00 0.000000D+00
       IJP=      49 A= 0.124783D+01 B= 0.685050D+01 U= 0.506906D-01
                    C= 0.100000D+01
         P2P=  -0.222531D-15-0.181716D+01-0.155697D+01
         P2PMA= 0.000000D+00 0.000000D+00 0.000000D+00
         P2PMB= 0.000000D+00 0.000000D+00 0.000000D+00
       IJP=      50 A= 0.124783D+01 B= 0.124783D+01 U= 0.286576D+00
                    C= 0.100000D+01
         P2P=  -0.222531D-15-0.181716D+01-0.155697D+01
         P2PMA= 0.000000D+00 0.000000D+00 0.000000D+00
         P2PMB= 0.000000D+00 0.000000D+00 0.000000D+00
       IJP=      51 A= 0.124783D+01 B= 0.337711D+00 U= 0.176371D+00
                    C= 0.100000D+01
         P2P=  -0.222531D-15-0.181716D+01-0.155697D+01
         P2PMA= 0.000000D+00 0.000000D+00 0.000000D+00
         P2PMB= 0.000000D+00 0.000000D+00 0.000000D+00
       IJP=      52 A= 0.337711D+00 B= 0.685050D+01 U= 0.188914D-01
                    C= 0.100000D+01
         P2P=  -0.222531D-15-0.181716D+01-0.155697D+01
         P2PMA= 0.000000D+00 0.000000D+00 0.000000D+00
         P2PMB= 0.000000D+00 0.000000D+00 0.000000D+00
       IJP=      53 A= 0.337711D+00 B= 0.124783D+01 U= 0.176371D+00
                    C= 0.100000D+01
         P2P=  -0.222531D-15-0.181716D+01-0.155697D+01
         P2PMA= 0.000000D+00 0.000000D+00 0.000000D+00
         P2PMB= 0.000000D+00 0.000000D+00 0.000000D+00
       IJP=      54 A= 0.337711D+00 B= 0.337711D+00 U= 0.197700D+00
                    C= 0.100000D+01
         P2P=  -0.222531D-15-0.181716D+01-0.155697D+01
         P2PMA= 0.000000D+00 0.000000D+00 0.000000D+00
         P2PMB= 0.000000D+00 0.000000D+00 0.000000D+00
 IJTC=   2 IType= 2 JType= 1 T2N2St=     3
   IJTN=   3 NPrm=     9     0 C2St=     7 PDSt=    55 PCSt=    55
   IJTN=   4 NPrm=     9     0 C2St=     7 PDSt=    55 PCSt=    55
    IJShl=     7 C2ShlIJ=     4     1 C2CelJ=     1 C2LocIJ=   1   1 C2FPrm=     9 C2KMax= 0.95D+01 0.73D+06
       C2CDif=      0.000000      0.000000      0.000000
       IJP=      55 A= 0.666595D+02 B= 0.106625D+04 U= 0.791830D-04
                    C=-0.629095D+02 0.100000D+01
         P2P=  -0.599722D-33 0.119944D-32 0.194621D+00
         P2PMA= 0.000000D+00 0.000000D+00 0.000000D+00
         P2PMB= 0.000000D+00 0.000000D+00 0.000000D+00
       IJP=      56 A= 0.666595D+02 B= 0.194219D+03 U= 0.300969D-02
                    C=-0.629095D+02 0.100000D+01
         P2P=  -0.599722D-33 0.119944D-32 0.194621D+00
         P2PMA= 0.000000D+00 0.000000D+00 0.000000D+00
         P2PMB= 0.000000D+00 0.000000D+00 0.000000D+00
       IJP=      57 A= 0.666595D+02 B= 0.525633D+02 U= 0.664349D-02
                    C=-0.629095D+02 0.100000D+01
         P2P=  -0.599722D-33 0.119944D-32 0.194621D+00
         P2PMA= 0.000000D+00 0.000000D+00 0.000000D+00
         P2PMB= 0.000000D+00 0.000000D+00 0.000000D+00
       IJP=      58 A= 0.154902D+02 B= 0.106625D+04 U= 0.558912D-04
                    C=-0.629095D+02 0.100000D+01
         P2P=  -0.599722D-33 0.119944D-32 0.194621D+00
         P2PMA= 0.000000D+00 0.000000D+00 0.000000D+00
         P2PMB= 0.000000D+00 0.000000D+00 0.000000D+00
       IJP=      59 A= 0.154902D+02 B= 0.194219D+03 U= 0.326667D-02
                    C=-0.629095D+02 0.100000D+01
         P2P=  -0.599722D-33 0.119944D-32 0.194621D+00
         P2PMA= 0.000000D+00 0.000000D+00 0.000000D+00
         P2PMB= 0.000000D+00 0.000000D+00 0.000000D+00
       IJP=      60 A= 0.154902D+02 B= 0.525633D+02 U= 0.169707D-01
                    C=-0.629095D+02 0.100000D+01
         P2P=  -0.599722D-33 0.119944D-32 0.194621D+00
         P2PMA= 0.000000D+00 0.000000D+00 0.000000D+00
         P2PMB= 0.000000D+00 0.000000D+00 0.000000D+00
       IJP=      61 A= 0.503791D+01 B= 0.106625D+04 U= 0.907166D-05
                    C=-0.629095D+02 0.100000D+01
         P2P=  -0.599722D-33 0.119944D-32 0.194621D+00
         P2PMA= 0.000000D+00 0.000000D+00 0.000000D+00
         P2PMB= 0.000000D+00 0.000000D+00 0.000000D+00
       IJP=      62 A= 0.503791D+01 B= 0.194219D+03 U= 0.588053D-03
                    C=-0.629095D+02 0.100000D+01
         P2P=  -0.599722D-33 0.119944D-32 0.194621D+00
         P2PMA= 0.000000D+00 0.000000D+00 0.000000D+00
         P2PMB= 0.000000D+00 0.000000D+00 0.000000D+00
       IJP=      63 A= 0.503791D+01 B= 0.525633D+02 U= 0.407895D-02
                    C=-0.629095D+02 0.100000D+01
         P2P=  -0.599722D-33 0.119944D-32 0.194621D+00
         P2PMA= 0.000000D+00 0.000000D+00 0.000000D+00
         P2PMB= 0.000000D+00 0.000000D+00 0.000000D+00
    IJShl=     8 C2ShlIJ=     4     2 C2CelJ=     1 C2LocIJ=   1   1 C2FPrm=     9 C2KMax= 0.24D+00 0.10D+03
       C2CDif=      0.000000     -1.817161      1.751587
       IJP=      64 A= 0.666595D+02 B= 0.685050D+01 U= 0.427794D-11
                    C=-0.144863D+02 0.100000D+01
         P2P=  -0.543833D-33 0.169344D+00 0.313879D-01
         P2PMA=-0.399771D-31-0.121131D+03 0.116760D+03
         P2PMB= 0.410839D-32 0.124485D+02-0.119993D+02
       IJP=      65 A= 0.666595D+02 B= 0.124783D+01 U= 0.399370D-04
                    C=-0.144863D+02 0.100000D+01
         P2P=  -0.588701D-33 0.333911D-01 0.162435D+00
         P2PMA=-0.399771D-31-0.121131D+03 0.116760D+03
         P2PMB= 0.748349D-33 0.226750D+01-0.218568D+01
       IJP=      66 A= 0.666595D+02 B= 0.337711D+00 U= 0.218405D-03
                    C=-0.144863D+02 0.100000D+01
         P2P=  -0.596699D-33 0.915971D-02 0.185792D+00
         P2PMA=-0.399771D-31-0.121131D+03 0.116760D+03
         P2PMB= 0.202532D-33 0.613675D+00-0.591530D+00
       IJP=      67 A= 0.154902D+02 B= 0.685050D+01 U= 0.556545D-08
                    C=-0.144863D+02 0.100000D+01
         P2P=  -0.415825D-33 0.557209D+00-0.342481D+00
         P2PMA=-0.928983D-32-0.281482D+02 0.271325D+02
         P2PMB= 0.410839D-32 0.124485D+02-0.119993D+02
       IJP=      68 A= 0.154902D+02 B= 0.124783D+01 U= 0.104087D-02
                    C=-0.144863D+02 0.100000D+01
         P2P=  -0.555012D-33 0.135470D+00 0.640395D-01
         P2PMA=-0.928983D-32-0.281482D+02 0.271325D+02
         P2PMB= 0.748349D-33 0.226750D+01-0.218568D+01
       IJP=      69 A= 0.154902D+02 B= 0.337711D+00 U= 0.515213D-02
                    C=-0.144863D+02 0.100000D+01
         P2P=  -0.586926D-33 0.387716D-01 0.157248D+00
         P2PMA=-0.928983D-32-0.281482D+02 0.271325D+02
         P2PMB= 0.202532D-33 0.613675D+00-0.591530D+00
       IJP=      70 A= 0.503791D+01 B= 0.685050D+01 U= 0.153085D-05
                    C=-0.144863D+02 0.100000D+01
         P2P=  -0.254142D-33 0.104711D+01-0.814703D+00
         P2PMA=-0.302134D-32-0.915468D+01 0.882433D+01
         P2PMB= 0.410839D-32 0.124485D+02-0.119993D+02
       IJP=      71 A= 0.503791D+01 B= 0.124783D+01 U= 0.312282D-02
                    C=-0.144863D+02 0.100000D+01
         P2P=  -0.480666D-33 0.360738D+00-0.153100D+00
         P2PMA=-0.302134D-32-0.915468D+01 0.882433D+01
         P2PMB= 0.748349D-33 0.226750D+01-0.218568D+01
       IJP=      72 A= 0.503791D+01 B= 0.337711D+00 U= 0.126958D-01
                    C=-0.144863D+02 0.100000D+01
         P2P=  -0.562045D-33 0.114159D+00 0.845813D-01
         P2PMA=-0.302134D-32-0.915468D+01 0.882433D+01
         P2PMB= 0.202532D-33 0.613675D+00-0.591530D+00
    IJShl=     9 C2ShlIJ=     4     3 C2CelJ=     1 C2LocIJ=   1   1 C2FPrm=     9 C2KMax= 0.24D+00 0.10D+03
       C2CDif=      0.000000      1.817161      1.751587
       IJP=      73 A= 0.666595D+02 B= 0.685050D+01 U= 0.427794D-11
                    C=-0.662033D+01 0.100000D+01
         P2P=  -0.207379D-16-0.169344D+00 0.313879D-01
         P2PMA= 0.148338D-13 0.121131D+03 0.116760D+03
         P2PMB=-0.152445D-14-0.124485D+02-0.119993D+02
       IJP=      74 A= 0.666595D+02 B= 0.124783D+01 U= 0.399370D-04
                    C=-0.662033D+01 0.100000D+01
         P2P=  -0.408910D-17-0.333911D-01 0.162435D+00
         P2PMA= 0.148338D-13 0.121131D+03 0.116760D+03
         P2PMB=-0.277680D-15-0.226750D+01-0.218568D+01
       IJP=      75 A= 0.666595D+02 B= 0.337711D+00 U= 0.218405D-03
                    C=-0.662033D+01 0.100000D+01
         P2P=  -0.112170D-17-0.915971D-02 0.185792D+00
         P2PMA= 0.148338D-13 0.121131D+03 0.116760D+03
         P2PMB=-0.751510D-16-0.613675D+00-0.591530D+00
       IJP=      76 A= 0.154902D+02 B= 0.685050D+01 U= 0.556545D-08
                    C=-0.662033D+01 0.100000D+01
         P2P=  -0.682362D-16-0.557209D+00-0.342481D+00
         P2PMA= 0.344705D-14 0.281482D+02 0.271325D+02
         P2PMB=-0.152445D-14-0.124485D+02-0.119993D+02
       IJP=      77 A= 0.154902D+02 B= 0.124783D+01 U= 0.104087D-02
                    C=-0.662033D+01 0.100000D+01
         P2P=  -0.165897D-16-0.135470D+00 0.640395D-01
         P2PMA= 0.344705D-14 0.281482D+02 0.271325D+02
         P2PMB=-0.277680D-15-0.226750D+01-0.218568D+01
       IJP=      78 A= 0.154902D+02 B= 0.337711D+00 U= 0.515213D-02
                    C=-0.662033D+01 0.100000D+01
         P2P=  -0.474799D-17-0.387716D-01 0.157248D+00
         P2PMA= 0.344705D-14 0.281482D+02 0.271325D+02
         P2PMB=-0.751510D-16-0.613675D+00-0.591530D+00
       IJP=      79 A= 0.503791D+01 B= 0.685050D+01 U= 0.153085D-05
                    C=-0.662033D+01 0.100000D+01
         P2P=  -0.128230D-15-0.104711D+01-0.814703D+00
         P2PMA= 0.112109D-14 0.915468D+01 0.882433D+01
         P2PMB=-0.152445D-14-0.124485D+02-0.119993D+02
       IJP=      80 A= 0.503791D+01 B= 0.124783D+01 U= 0.312282D-02
                    C=-0.662033D+01 0.100000D+01
         P2P=  -0.441762D-16-0.360738D+00-0.153100D+00
         P2PMA= 0.112109D-14 0.915468D+01 0.882433D+01
         P2PMB=-0.277680D-15-0.226750D+01-0.218568D+01
       IJP=      81 A= 0.503791D+01 B= 0.337711D+00 U= 0.126958D-01
                    C=-0.662033D+01 0.100000D+01
         P2P=  -0.139800D-16-0.114159D+00 0.845813D-01
         P2PMA= 0.112109D-14 0.915468D+01 0.882433D+01
         P2PMB=-0.751510D-16-0.613675D+00-0.591530D+00
    IJShl=    10 C2ShlIJ=     5     1 C2CelJ=     1 C2LocIJ=   1   1 C2FPrm=     9 C2KMax= 0.34D+00 0.16D+05
       C2CDif=      0.000000      0.000000      0.000000
       IJP=      82 A= 0.405839D+01 B= 0.106625D+04 U= 0.187443D-06
                    C= 0.127771D+03 0.100000D+01
         P2P=  -0.599722D-33 0.119944D-32 0.194621D+00
         P2PMA= 0.000000D+00 0.000000D+00 0.000000D+00
         P2PMB= 0.000000D+00 0.000000D+00 0.000000D+00
       IJP=      83 A= 0.405839D+01 B= 0.194219D+03 U= 0.122731D-04
                    C= 0.127771D+03 0.100000D+01
         P2P=  -0.599722D-33 0.119944D-32 0.194621D+00
         P2PMA= 0.000000D+00 0.000000D+00 0.000000D+00
         P2PMB= 0.000000D+00 0.000000D+00 0.000000D+00
       IJP=      84 A= 0.405839D+01 B= 0.525633D+02 U= 0.877725D-04
                    C= 0.127771D+03 0.100000D+01
         P2P=  -0.599722D-33 0.119944D-32 0.194621D+00
         P2PMA= 0.000000D+00 0.000000D+00 0.000000D+00
         P2PMB= 0.000000D+00 0.000000D+00 0.000000D+00
       IJP=      85 A= 0.113228D+01 B= 0.106625D+04 U= 0.215121D-05
                    C= 0.127771D+03 0.100000D+01
         P2P=  -0.599722D-33 0.119944D-32 0.194621D+00
         P2PMA= 0.000000D+00 0.000000D+00 0.000000D+00
         P2PMB= 0.000000D+00 0.000000D+00 0.000000D+00
       IJP=      86 A= 0.113228D+01 B= 0.194219D+03 U= 0.145191D-03
                    C= 0.127771D+03 0.100000D+01
         P2P=  -0.599722D-33 0.119944D-32 0.194621D+00
         P2PMA= 0.000000D+00 0.000000D+00 0.000000D+00
         P2PMB= 0.000000D+00 0.000000D+00 0.000000D+00
       IJP=      87 A= 0.113228D+01 B= 0.525633D+02 U= 0.114238D-02
                    C= 0.127771D+03 0.100000D+01
         P2P=  -0.599722D-33 0.119944D-32 0.194621D+00
         P2PMA= 0.000000D+00 0.000000D+00 0.000000D+00
         P2PMB= 0.000000D+00 0.000000D+00 0.000000D+00
       IJP=      88 A= 0.443167D+00 B= 0.106625D+04 U= 0.517790D-06
                    C= 0.127771D+03 0.100000D+01
         P2P=  -0.599722D-33 0.119944D-32 0.194621D+00
         P2PMA= 0.000000D+00 0.000000D+00 0.000000D+00
         P2PMB= 0.000000D+00 0.000000D+00 0.000000D+00
       IJP=      89 A= 0.443167D+00 B= 0.194219D+03 U= 0.352003D-04
                    C= 0.127771D+03 0.100000D+01
         P2P=  -0.599722D-33 0.119944D-32 0.194621D+00
         P2PMA= 0.000000D+00 0.000000D+00 0.000000D+00
         P2PMB= 0.000000D+00 0.000000D+00 0.000000D+00
       IJP=      90 A= 0.443167D+00 B= 0.525633D+02 U= 0.283534D-03
                    C= 0.127771D+03 0.100000D+01
         P2P=  -0.599722D-33 0.119944D-32 0.194621D+00
         P2PMA= 0.000000D+00 0.000000D+00 0.000000D+00
         P2PMB= 0.000000D+00 0.000000D+00 0.000000D+00
    IJShl=    11 C2ShlIJ=     5     2 C2CelJ=     1 C2LocIJ=   1   1 C2FPrm=     9 C2KMax= 0.18D+00 0.33D+00
       C2CDif=      0.000000     -1.817161      1.751587
       IJP=      91 A= 0.405839D+01 B= 0.685050D+01 U= 0.120996D-06
                    C= 0.247700D+02 0.100000D+01
         P2P=  -0.223112D-33 0.114113D+01-0.905331D+00
         P2PMA=-0.243390D-32-0.737474D+01 0.710862D+01
         P2PMB= 0.410839D-32 0.124485D+02-0.119993D+02
       IJP=      92 A= 0.405839D+01 B= 0.124783D+01 U= 0.113741D-03
                    C= 0.247700D+02 0.100000D+01
         P2P=  -0.458689D-33 0.427330D+00-0.217288D+00
         P2PMA=-0.243390D-32-0.737474D+01 0.710862D+01
         P2PMB= 0.748349D-33 0.226750D+01-0.218568D+01
       IJP=      93 A= 0.405839D+01 B= 0.337711D+00 U= 0.439327D-03
                    C= 0.247700D+02 0.100000D+01
         P2P=  -0.553651D-33 0.139595D+00 0.600629D-01
         P2PMA=-0.243390D-32-0.737474D+01 0.710862D+01
         P2PMB= 0.202532D-33 0.613675D+00-0.591530D+00
       IJP=      94 A= 0.113228D+01 B= 0.685050D+01 U= 0.457000D-03
                    C= 0.247700D+02 0.100000D+01
         P2P=  -0.850647D-34 0.155941D+01-0.130852D+01
         P2PMA=-0.679053D-33-0.205753D+01 0.198329D+01
         P2PMB= 0.410839D-32 0.124485D+02-0.119993D+02
       IJP=      95 A= 0.113228D+01 B= 0.124783D+01 U= 0.303564D-01
                    C= 0.247700D+02 0.100000D+01
         P2P=  -0.285303D-33 0.952689D+00-0.723690D+00
         P2PMA=-0.679053D-33-0.205753D+01 0.198329D+01
         P2PMB= 0.748349D-33 0.226750D+01-0.218568D+01
       IJP=      96 A= 0.113228D+01 B= 0.337711D+00 U= 0.912946D-01
                    C= 0.247700D+02 0.100000D+01
         P2P=  -0.461944D-33 0.417468D+00-0.207783D+00
         P2PMA=-0.679053D-33-0.205753D+01 0.198329D+01
         P2PMB= 0.202532D-33 0.613675D+00-0.591530D+00
       IJP=      97 A= 0.443167D+00 B= 0.685050D+01 U= 0.807272D-03
                    C= 0.247700D+02 0.100000D+01
         P2P=  -0.364394D-34 0.170675D+01-0.145054D+01
         P2PMA=-0.265777D-33-0.805305D+00 0.776245D+00
         P2PMB= 0.410839D-32 0.124485D+02-0.119993D+02
       IJP=      98 A= 0.443167D+00 B= 0.124783D+01 U= 0.400806D-01
                    C= 0.247700D+02 0.100000D+01
         P2P=  -0.157172D-33 0.134093D+01-0.109792D+01
         P2PMA=-0.265777D-33-0.805305D+00 0.776245D+00
         P2PMB= 0.748349D-33 0.226750D+01-0.218568D+01
       IJP=      99 A= 0.443167D+00 B= 0.337711D+00 U= 0.132664D+00
                    C= 0.247700D+02 0.100000D+01
         P2P=  -0.340356D-33 0.785878D+00-0.562899D+00
         P2PMA=-0.265777D-33-0.805305D+00 0.776245D+00
         P2PMB= 0.202532D-33 0.613675D+00-0.591530D+00
    IJShl=    12 C2ShlIJ=     5     3 C2CelJ=     1 C2LocIJ=   1   1 C2FPrm=     9 C2KMax= 0.18D+00 0.33D+00
       C2CDif=      0.000000      1.817161      1.751587
       IJP=     100 A= 0.405839D+01 B= 0.685050D+01 U= 0.120996D-06
                    C= 0.803821D+01 0.100000D+01
         P2P=  -0.139744D-15-0.114113D+01-0.905331D+00
         P2PMA= 0.903116D-15 0.737474D+01 0.710862D+01
         P2PMB=-0.152445D-14-0.124485D+02-0.119993D+02
       IJP=     101 A= 0.405839D+01 B= 0.124783D+01 U= 0.113741D-03
                    C= 0.803821D+01 0.100000D+01
         P2P=  -0.523310D-16-0.427330D+00-0.217288D+00
         P2PMA= 0.903116D-15 0.737474D+01 0.710862D+01
         P2PMB=-0.277680D-15-0.226750D+01-0.218568D+01
       IJP=     102 A= 0.405839D+01 B= 0.337711D+00 U= 0.439327D-03
                    C= 0.803821D+01 0.100000D+01
         P2P=  -0.170949D-16-0.139595D+00 0.600629D-01
         P2PMA= 0.903116D-15 0.737474D+01 0.710862D+01
         P2PMB=-0.751510D-16-0.613675D+00-0.591530D+00
       IJP=     103 A= 0.113228D+01 B= 0.685050D+01 U= 0.457000D-03
                    C= 0.803821D+01 0.100000D+01
         P2P=  -0.190967D-15-0.155941D+01-0.130852D+01
         P2PMA= 0.251967D-15 0.205753D+01 0.198329D+01
         P2PMB=-0.152445D-14-0.124485D+02-0.119993D+02
       IJP=     104 A= 0.113228D+01 B= 0.124783D+01 U= 0.303564D-01
                    C= 0.803821D+01 0.100000D+01
         P2P=  -0.116667D-15-0.952689D+00-0.723690D+00
         P2PMA= 0.251967D-15 0.205753D+01 0.198329D+01
         P2PMB=-0.277680D-15-0.226750D+01-0.218568D+01
       IJP=     105 A= 0.113228D+01 B= 0.337711D+00 U= 0.912946D-01
                    C= 0.803821D+01 0.100000D+01
         P2P=  -0.511234D-16-0.417468D+00-0.207783D+00
         P2PMA= 0.251967D-15 0.205753D+01 0.198329D+01
         P2PMB=-0.751510D-16-0.613675D+00-0.591530D+00
       IJP=     106 A= 0.443167D+00 B= 0.685050D+01 U= 0.807272D-03
                    C= 0.803821D+01 0.100000D+01
         P2P=  -0.209010D-15-0.170675D+01-0.145054D+01
         P2PMA= 0.986182D-16 0.805305D+00 0.776245D+00
         P2PMB=-0.152445D-14-0.124485D+02-0.119993D+02
       IJP=     107 A= 0.443167D+00 B= 0.124783D+01 U= 0.400806D-01
                    C= 0.803821D+01 0.100000D+01
         P2P=  -0.164211D-15-0.134093D+01-0.109792D+01
         P2PMA= 0.986182D-16 0.805305D+00 0.776245D+00
         P2PMB=-0.277680D-15-0.226750D+01-0.218568D+01
       IJP=     108 A= 0.443167D+00 B= 0.337711D+00 U= 0.132664D+00
                    C= 0.803821D+01 0.100000D+01
         P2P=  -0.962392D-16-0.785878D+00-0.562899D+00
         P2PMA= 0.986182D-16 0.805305D+00 0.776245D+00
         P2PMB=-0.751510D-16-0.613675D+00-0.591530D+00
 IJTC=   3 IType= 2 JType= 2 T2N2St=     5
   IJTN=   5 NPrm=     9     0 C2St=    13 PDSt=   109 PCSt=   163
   IJTN=   6 NPrm=     9     0 C2St=    13 PDSt=   109 PCSt=   163
    IJShl=    13 C2ShlIJ=     4     4 C2CelJ=     1 C2LocIJ=   1   1 C2FPrm=     9 C2KMax= 0.48D+02 0.12D+06
       C2CDif=      0.000000      0.000000      0.000000
       IJP=     109 A= 0.666595D+02 B= 0.666595D+02 U= 0.182344D-03
                    C= 0.548055D+02-0.740308D+01-0.740308D+01 0.100000D+01
         P2P=  -0.599722D-33 0.119944D-32 0.194621D+00
         P2PMA= 0.000000D+00 0.000000D+00 0.000000D+00
         P2PMB= 0.000000D+00 0.000000D+00 0.000000D+00
       IJP=     110 A= 0.666595D+02 B= 0.154902D+02 U= 0.624342D-03
                    C= 0.548055D+02-0.740308D+01-0.740308D+01 0.100000D+01
         P2P=  -0.599722D-33 0.119944D-32 0.194621D+00
         P2PMA= 0.000000D+00 0.000000D+00 0.000000D+00
         P2PMB= 0.000000D+00 0.000000D+00 0.000000D+00
       IJP=     111 A= 0.666595D+02 B= 0.503791D+01 U= 0.159251D-03
                    C= 0.548055D+02-0.740308D+01-0.740308D+01 0.100000D+01
         P2P=  -0.599722D-33 0.119944D-32 0.194621D+00
         P2PMA= 0.000000D+00 0.000000D+00 0.000000D+00
         P2PMB= 0.000000D+00 0.000000D+00 0.000000D+00
       IJP=     112 A= 0.154902D+02 B= 0.666595D+02 U= 0.624342D-03
                    C= 0.548055D+02-0.740308D+01-0.740308D+01 0.100000D+01
         P2P=  -0.599722D-33 0.119944D-32 0.194621D+00
         P2PMA= 0.000000D+00 0.000000D+00 0.000000D+00
         P2PMB= 0.000000D+00 0.000000D+00 0.000000D+00
       IJP=     113 A= 0.154902D+02 B= 0.154902D+02 U= 0.119198D-01
                    C= 0.548055D+02-0.740308D+01-0.740308D+01 0.100000D+01
         P2P=  -0.599722D-33 0.119944D-32 0.194621D+00
         P2PMA= 0.000000D+00 0.000000D+00 0.000000D+00
         P2PMB= 0.000000D+00 0.000000D+00 0.000000D+00
       IJP=     114 A= 0.154902D+02 B= 0.503791D+01 U= 0.797357D-02
                    C= 0.548055D+02-0.740308D+01-0.740308D+01 0.100000D+01
         P2P=  -0.599722D-33 0.119944D-32 0.194621D+00
         P2PMA= 0.000000D+00 0.000000D+00 0.000000D+00
         P2PMB= 0.000000D+00 0.000000D+00 0.000000D+00
       IJP=     115 A= 0.503791D+01 B= 0.666595D+02 U= 0.159251D-03
                    C= 0.548055D+02-0.740308D+01-0.740308D+01 0.100000D+01
         P2P=  -0.599722D-33 0.119944D-32 0.194621D+00
         P2PMA= 0.000000D+00 0.000000D+00 0.000000D+00
         P2PMB= 0.000000D+00 0.000000D+00 0.000000D+00
       IJP=     116 A= 0.503791D+01 B= 0.154902D+02 U= 0.797357D-02
                    C= 0.548055D+02-0.740308D+01-0.740308D+01 0.100000D+01
         P2P=  -0.599722D-33 0.119944D-32 0.194621D+00
         P2PMA= 0.000000D+00 0.000000D+00 0.000000D+00
         P2PMB= 0.000000D+00 0.000000D+00 0.000000D+00
       IJP=     117 A= 0.503791D+01 B= 0.503791D+01 U= 0.152475D-01
                    C= 0.548055D+02-0.740308D+01-0.740308D+01 0.100000D+01
         P2P=  -0.599722D-33 0.119944D-32 0.194621D+00
         P2PMA= 0.000000D+00 0.000000D+00 0.000000D+00
         P2PMB= 0.000000D+00 0.000000D+00 0.000000D+00
    IJShl=    14 C2ShlIJ=     5     4 C2CelJ=     1 C2LocIJ=   1   1 C2FPrm=     9 C2KMax= 0.33D+01 0.15D+04
       C2CDif=      0.000000      0.000000      0.000000
       IJP=     118 A= 0.405839D+01 B= 0.666595D+02 U= 0.344494D-05
                    C=-0.442631D+02-0.456170D+01 0.970321D+01 0.100000D+01
         P2P=  -0.599722D-33 0.119944D-32 0.194621D+00
         P2PMA= 0.000000D+00 0.000000D+00 0.000000D+00
         P2PMB= 0.000000D+00 0.000000D+00 0.000000D+00
       IJP=     119 A= 0.405839D+01 B= 0.154902D+02 U= 0.195055D-03
                    C=-0.442631D+02-0.456170D+01 0.970321D+01 0.100000D+01
         P2P=  -0.599722D-33 0.119944D-32 0.194621D+00
         P2PMA= 0.000000D+00 0.000000D+00 0.000000D+00
         P2PMB= 0.000000D+00 0.000000D+00 0.000000D+00
       IJP=     120 A= 0.405839D+01 B= 0.503791D+01 U= 0.449615D-03
                    C=-0.442631D+02-0.456170D+01 0.970321D+01 0.100000D+01
         P2P=  -0.599722D-33 0.119944D-32 0.194621D+00
         P2PMA= 0.000000D+00 0.000000D+00 0.000000D+00
         P2PMB= 0.000000D+00 0.000000D+00 0.000000D+00
       IJP=     121 A= 0.113228D+01 B= 0.666595D+02 U= 0.455256D-04
                    C=-0.442631D+02-0.456170D+01 0.970321D+01 0.100000D+01
         P2P=  -0.599722D-33 0.119944D-32 0.194621D+00
         P2PMA= 0.000000D+00 0.000000D+00 0.000000D+00
         P2PMB= 0.000000D+00 0.000000D+00 0.000000D+00
       IJP=     122 A= 0.113228D+01 B= 0.154902D+02 U= 0.392164D-02
                    C=-0.442631D+02-0.456170D+01 0.970321D+01 0.100000D+01
         P2P=  -0.599722D-33 0.119944D-32 0.194621D+00
         P2PMA= 0.000000D+00 0.000000D+00 0.000000D+00
         P2PMB= 0.000000D+00 0.000000D+00 0.000000D+00
       IJP=     123 A= 0.113228D+01 B= 0.503791D+01 U= 0.199372D-01
                    C=-0.442631D+02-0.456170D+01 0.970321D+01 0.100000D+01
         P2P=  -0.599722D-33 0.119944D-32 0.194621D+00
         P2PMA= 0.000000D+00 0.000000D+00 0.000000D+00
         P2PMB= 0.000000D+00 0.000000D+00 0.000000D+00
       IJP=     124 A= 0.443167D+00 B= 0.666595D+02 U= 0.113385D-04
                    C=-0.442631D+02-0.456170D+01 0.970321D+01 0.100000D+01
         P2P=  -0.599722D-33 0.119944D-32 0.194621D+00
         P2PMA= 0.000000D+00 0.000000D+00 0.000000D+00
         P2PMB= 0.000000D+00 0.000000D+00 0.000000D+00
       IJP=     125 A= 0.443167D+00 B= 0.154902D+02 U= 0.109294D-02
                    C=-0.442631D+02-0.456170D+01 0.970321D+01 0.100000D+01
         P2P=  -0.599722D-33 0.119944D-32 0.194621D+00
         P2PMA= 0.000000D+00 0.000000D+00 0.000000D+00
         P2PMB= 0.000000D+00 0.000000D+00 0.000000D+00
       IJP=     126 A= 0.443167D+00 B= 0.503791D+01 U= 0.725185D-02
                    C=-0.442631D+02-0.456170D+01 0.970321D+01 0.100000D+01
         P2P=  -0.599722D-33 0.119944D-32 0.194621D+00
         P2PMA= 0.000000D+00 0.000000D+00 0.000000D+00
         P2PMB= 0.000000D+00 0.000000D+00 0.000000D+00
    IJShl=    15 C2ShlIJ=     5     5 C2CelJ=     1 C2LocIJ=   1   1 C2FPrm=     9 C2KMax= 0.91D+00 0.17D+01
       C2CDif=      0.000000      0.000000      0.000000
       IJP=     127 A= 0.405839D+01 B= 0.405839D+01 U= 0.138106D-04
                    C=-0.160627D+03-0.398129D+01 0.403454D+02 0.100000D+01
         P2P=  -0.599722D-33 0.119944D-32 0.194621D+00
         P2PMA= 0.000000D+00 0.000000D+00 0.000000D+00
         P2PMB= 0.000000D+00 0.000000D+00 0.000000D+00
       IJP=     128 A= 0.405839D+01 B= 0.113228D+01 U= 0.752687D-03
                    C=-0.160627D+03-0.398129D+01 0.403454D+02 0.100000D+01
         P2P=  -0.599722D-33 0.119944D-32 0.194621D+00
         P2PMA= 0.000000D+00 0.000000D+00 0.000000D+00
         P2PMB= 0.000000D+00 0.000000D+00 0.000000D+00
       IJP=     129 A= 0.405839D+01 B= 0.443167D+00 U= 0.297781D-03
                    C=-0.160627D+03-0.398129D+01 0.403454D+02 0.100000D+01
         P2P=  -0.599722D-33 0.119944D-32 0.194621D+00
         P2PMA= 0.000000D+00 0.000000D+00 0.000000D+00
         P2PMB= 0.000000D+00 0.000000D+00 0.000000D+00
       IJP=     130 A= 0.113228D+01 B= 0.405839D+01 U= 0.752687D-03
                    C=-0.160627D+03-0.398129D+01 0.403454D+02 0.100000D+01
         P2P=  -0.599722D-33 0.119944D-32 0.194621D+00
         P2PMA= 0.000000D+00 0.000000D+00 0.000000D+00
         P2PMB= 0.000000D+00 0.000000D+00 0.000000D+00
       IJP=     131 A= 0.113228D+01 B= 0.113228D+01 U= 0.156421D+00
                    C=-0.160627D+03-0.398129D+01 0.403454D+02 0.100000D+01
         P2P=  -0.599722D-33 0.119944D-32 0.194621D+00
         P2PMA= 0.000000D+00 0.000000D+00 0.000000D+00
         P2PMB= 0.000000D+00 0.000000D+00 0.000000D+00
       IJP=     132 A= 0.113228D+01 B= 0.443167D+00 U= 0.133843D+00
                    C=-0.160627D+03-0.398129D+01 0.403454D+02 0.100000D+01
         P2P=  -0.599722D-33 0.119944D-32 0.194621D+00
         P2PMA= 0.000000D+00 0.000000D+00 0.000000D+00
         P2PMB= 0.000000D+00 0.000000D+00 0.000000D+00
       IJP=     133 A= 0.443167D+00 B= 0.405839D+01 U= 0.297781D-03
                    C=-0.160627D+03-0.398129D+01 0.403454D+02 0.100000D+01
         P2P=  -0.599722D-33 0.119944D-32 0.194621D+00
         P2PMA= 0.000000D+00 0.000000D+00 0.000000D+00
         P2PMB= 0.000000D+00 0.000000D+00 0.000000D+00
       IJP=     134 A= 0.443167D+00 B= 0.113228D+01 U= 0.133843D+00
                    C=-0.160627D+03-0.398129D+01 0.403454D+02 0.100000D+01
         P2P=  -0.599722D-33 0.119944D-32 0.194621D+00
         P2PMA= 0.000000D+00 0.000000D+00 0.000000D+00
         P2PMB= 0.000000D+00 0.000000D+00 0.000000D+00
       IJP=     135 A= 0.443167D+00 B= 0.443167D+00 U= 0.240818D+00
                    C=-0.160627D+03-0.398129D+01 0.403454D+02 0.100000D+01
         P2P=  -0.599722D-33 0.119944D-32 0.194621D+00
         P2PMA= 0.000000D+00 0.000000D+00 0.000000D+00
         P2PMB= 0.000000D+00 0.000000D+00 0.000000D+00
 IJTC=   4 IType= 3 JType= 4 T2N2St=     7
   IJTN=   7 NPrm=     1     1 C2St=    16 PDSt=   136 PCSt=   271
    IJShl=    16 C2ShlIJ=     6     6 C2CelJ=     1 C2LocIJ=   1   1 C2FPrm=     1 C2KMax= 0.14D+02 0.14D+02
       C2CDif=      0.000000      0.000000      0.000000
       IJP=     136 A= 0.100000D+01 B= 0.000000D+00 U= 0.100000D+01
                    C= 0.100000D+01
         P2P=   0.000000D+00 0.000000D+00 0.000000D+00
         P2PMA= 0.000000D+00 0.000000D+00 0.000000D+00
         P2PMB= 0.000000D+00 0.000000D+00 0.000000D+00
   IJTN=   8 NPrm=     1     1 C2St=    17 PDSt=   137 PCSt=   272
 Symmetry will be used
 Overlap and Kinetic Integrals          
 Derivative Range = 0 to 2  Logicals = T F F F F F
 The Identity operator will be used
 PRISM was handed     6248577 working-precision words and    15 shell-pairs
 PRISM will use Minimum- Mop paths
 [0] accuracy = 0.10D-12   Chebyshev Delta = 0.12D-02   Critical T = 28.20


           Zone         Bra Derivative Range     Ket Derivative Range
           ==========================================================
             1                 0 to 2                   0 to 0
           ==========================================================

                             -------------------
                             The (ss|ss) Classes
 Not enough memory for any path:
 MxKBra=    9 MxKKet=    1 Memory=    12496172.
 After MaxDer, Avail=TTFFTTFFFFTTFFTFFFFFFFFFFFFFFTFFFFFFFFFFFFFFFFFFFF
 After MemPth, Avail=TTFFTTFFFFTTFFTFFFFFFFFFFFFFFTFFFFFFFFFFFFFFFFFFFF
 After MxKxxx, Avail=FFFFTTFFFFFFFFTFFFFFFFFFFFFFFTFFFFFFFFFFFFFFFFFFFF
 After UseAlp/DoOS, Avail=FFFFFFFFFFFFFFFFFFFFFFFFFFFFFTFFFFFFFFFFFFFFFFFFFF
                             -------------------

       Available PRISM Paths: 29

    No. of target [m0|n0]   =    10
    No. of locations needed =    11

       T1    T2    T3    T4    T5    T6    T7    T8    T9   T10   T11   T12
       39 99999 99999 99999     0     0     0     0     0     0     0     0
   C1   C2   C3   C4   C5   C6   C7   C8   C9  C10  C11  C12  C13  C14  C15  C16
9999999999999999999999999999999999999999   10   10   10   10   10   10   10   10
    0    0    0    0    0    0    0    0   10   10   10   10   10   10   10   10

                   VR1     cost =      67
                   Bra-TRn cost =       9
                   Ket-TRn cost =       0

                   Space needed for drivers          =    1218
                   Space needed for driver formation =    1698

                   KBra   KKet   Path     Mops    Wds/S4    MaxCom 

                   C37 =       0
                   C38 =       0

  n0SL  n1SL  n2SL   mQP mQB mDP mDB mPA mAB mQC mCD mRA mRC
    11    11    11     1   0   0   0   0   0   0   0   0   0
 Prsmar:                       9      1     29       790       385        99       218       170

                             -------------------
                             The (Ps|ss) Classes
 Not enough memory for any path:
 MxKBra=    9 MxKKet=    1 Memory=    12494256.
 After MaxDer, Avail=TTFFTTFFFFTTFFTFFFFFFFFFFFFFFTFFFFFFFFFFFFFFFFFFFF
 After MemPth, Avail=TTFFTTFFFFTTFFTFFFFFFFFFFFFFFTFFFFFFFFFFFFFFFFFFFF
 After MxKxxx, Avail=FFFFTTFFFFFFFFTFFFFFFFFFFFFFFTFFFFFFFFFFFFFFFFFFFF
 After UseAlp/DoOS, Avail=FFFFFFFFFFFFFFFFFFFFFFFFFFFFFTFFFFFFFFFFFFFFFFFFFF
                             -------------------

       Available PRISM Paths: 29

    No. of target [m0|n0]   =    20
    No. of locations needed =    21

       T1    T2    T3    T4    T5    T6    T7    T8    T9   T10   T11   T12
       96 99999 99999 99999     0     0     0     0     0     0     0     0
   C1   C2   C3   C4   C5   C6   C7   C8   C9  C10  C11  C12  C13  C14  C15  C16
9999999999999999999999999999999999999999   50   40   40   50   50   40   40   50
    0    0    0    0    0    0    0    0   40   40   40   40   40   40   40   40

                   VR1     cost =     174
                   Bra-TRn cost =      89
                   Ket-TRn cost =       0

                   Space needed for drivers          =    3546
                   Space needed for driver formation =    5275

                   KBra   KKet   Path     Mops    Wds/S4    MaxCom 

                   C37 =       0
                   C38 =       0

  n0SL  n1SL  n2SL   mQP mQB mDP mDB mPA mAB mQC mCD mRA mRC
    41    34    21     1   0   0   0   0   0   0   0   0   0
 Prsmar:                       9      1     29      2197       537       189       268       122

                             -------------------
                             The (PP|ss) Classes
 Not enough memory for any path:
 MxKBra=    9 MxKKet=    1 Memory=    12486375.
 After MaxDer, Avail=TTFFTTFFFFTTFFTFFFFFFFFFFFFFFTFFFFFFFFFFFFFFFFFFFF
 After MemPth, Avail=TTFFTTFFFFTTFFTFFFFFFFFFFFFFFTFFFFFFFFFFFFFFFFFFFF
 After MxKxxx, Avail=FFFFTTFFFFFFFFTFFFFFFFFFFFFFFTFFFFFFFFFFFFFFFFFFFF
 After UseAlp/DoOS, Avail=FFFFFFFFFFFFFFFFFFFFFFFFFFFFFTFFFFFFFFFFFFFFFFFFFF
                             -------------------

       Available PRISM Paths: 29

    No. of target [m0|n0]   =    35
    No. of locations needed =    36

       T1    T2    T3    T4    T5    T6    T7    T8    T9   T10   T11   T12
      189 99999 99999 99999     0     0     0     0     0     0     0     0
   C1   C2   C3   C4   C5   C6   C7   C8   C9  C10  C11  C12  C13  C14  C15  C16
9999999999999999999999999999999999999999  230  160  160  230  230  160  160  230
    0    0    0    0    0    0    0    0  160  160  160  160  160  160  160  160

                   VR1     cost =     349
                   Bra-TRn cost =     764
                   Ket-TRn cost =       0

                   Space needed for drivers          =   12507
                   Space needed for driver formation =   21958

                   KBra   KKet   Path     Mops    Wds/S4    MaxCom 

                   C37 =       0
                   C38 =       0

  n0SL  n1SL  n2SL   mQP mQB mDP mDB mPA mAB mQC mCD mRA mRC
   164   118    36     1   0   0   0   0   1   0   0   0   0
 Prsmar:                       9      1     29      5821       828       324       412        79
 *** Overlap *** 
                1             2             3             4             5
      1  0.100000D+01
      2  0.335524D+00  0.100000D+01
      3  0.000000D+00  0.000000D+00  0.100000D+01
      4  0.000000D+00  0.000000D+00  0.000000D+00  0.100000D+01
      5  0.000000D+00  0.000000D+00  0.000000D+00  0.000000D+00  0.100000D+01
      6  0.142502D-01  0.243098D+00  0.000000D+00  0.000000D+00  0.000000D+00
      7  0.000000D+00  0.000000D+00  0.257359D+00  0.000000D+00  0.000000D+00
      8  0.000000D+00  0.000000D+00  0.000000D+00  0.257359D+00  0.000000D+00
      9  0.000000D+00  0.000000D+00  0.000000D+00  0.000000D+00  0.257359D+00
     10  0.761631D-02  0.601869D-01  0.000000D+00  0.206377D-01 -0.198930D-01
     11  0.761631D-02  0.601869D-01  0.000000D+00 -0.206377D-01 -0.198930D-01
                6             7             8             9            10
      6  0.100000D+01
      7  0.000000D+00  0.100000D+01
      8  0.000000D+00  0.000000D+00  0.100000D+01
      9  0.000000D+00  0.000000D+00  0.000000D+00  0.100000D+01
     10  0.401400D+00  0.000000D+00  0.313421D+00 -0.302111D+00  0.100000D+01
     11  0.401400D+00  0.000000D+00 -0.313421D+00 -0.302111D+00  0.135054D+00
               11
     11  0.100000D+01
 *** Kinetic Energy *** 
                1             2             3             4             5
      1  0.118296D+03
      2  0.138260D+00  0.535146D+01
      3  0.000000D+00  0.000000D+00  0.167454D+02
      4  0.000000D+00  0.000000D+00  0.000000D+00  0.167454D+02
      5  0.000000D+00  0.000000D+00  0.000000D+00  0.000000D+00  0.167454D+02
      6 -0.249589D+00 -0.392785D+00  0.000000D+00  0.000000D+00  0.000000D+00
      7  0.000000D+00  0.000000D+00  0.580906D+00  0.000000D+00  0.000000D+00
      8  0.000000D+00  0.000000D+00  0.000000D+00  0.580906D+00  0.000000D+00
      9  0.000000D+00  0.000000D+00  0.000000D+00  0.000000D+00  0.580906D+00
     10 -0.257589D-02 -0.162970D-01  0.000000D+00 -0.334216D-02  0.322155D-02
     11 -0.257589D-02 -0.162970D-01  0.000000D+00  0.334216D-02  0.322155D-02
                6             7             8             9            10
      6  0.417218D+00
      7  0.000000D+00  0.975935D+00
      8  0.000000D+00  0.000000D+00  0.975935D+00
      9  0.000000D+00  0.000000D+00  0.000000D+00  0.975935D+00
     10  0.631351D-01  0.000000D+00  0.123679D+00 -0.119216D+00  0.760032D+00
     11  0.631351D-01  0.000000D+00 -0.123679D+00 -0.119216D+00 -0.898980D-02
               11
     11  0.760032D+00
 Entering OneElI...
 OneElI was handed  6251279 working-precision words.
 Calculate potential energy integrals
    NBasis =  11  MinDer = 0  MaxDer = 0
 Requested accuracy = 0.1000D-12
  NShlT=       8 NTypes=       3  LenT1=       6  LenC1=       9
  LenT2=       5  LenN2=      82  LenC2=      19 LenP2D=     138
 LenP2C=     273
 IType=       1 ShlT= 0 ShlC= 0 T1C1St=       1
   ISh=       1 C1NPrm=   3 C1ESt=       1 C1CSt=       1
     C1SMap=       1 C1AOS=       1 C1Cent=     1
     CentXYZ=      0.000000      0.000000      0.194621
     IPrm=       1 P1Exp= 5.33D+02 P1CMax= 1.22D+01
     IPrm=       2 P1Exp= 9.71D+01 P1CMax= 1.18D+01
     IPrm=       3 P1Exp= 2.63D+01 P1CMax= 3.68D+00
   ISh=       2 C1NPrm=   3 C1ESt=       4 C1CSt=       4
     C1SMap=       4 C1AOS=      10 C1Cent=     2
     CentXYZ=      0.000000      1.817161     -1.556966
     IPrm=       4 P1Exp= 3.43D+00 P1CMax= 2.77D-01
     IPrm=       5 P1Exp= 6.24D-01 P1CMax= 2.68D-01
     IPrm=       6 P1Exp= 1.69D-01 P1CMax= 8.35D-02
   ISh=       3 C1NPrm=   3 C1ESt=       7 C1CSt=       7
     C1SMap=       5 C1AOS=      11 C1Cent=     3
     CentXYZ=      0.000000     -1.817161     -1.556966
     IPrm=       7 P1Exp= 3.43D+00 P1CMax= 2.77D-01
     IPrm=       8 P1Exp= 6.24D-01 P1CMax= 2.68D-01
     IPrm=       9 P1Exp= 1.69D-01 P1CMax= 8.35D-02
 IType=       2 ShlT= 1 ShlC= 0 T1C1St=       4
   ISh=       4 C1NPrm=   3 C1ESt=      10 C1CSt=      10
     C1SMap=       2 C1AOS=       2 C1Cent=     1
     CentXYZ=      0.000000      0.000000      0.194621
     IPrm=      10 P1Exp= 3.33D+01 P1CMax= 1.78D+01
     IPrm=      11 P1Exp= 7.75D+00 P1CMax= 1.12D+01
     IPrm=      12 P1Exp= 2.52D+00 P1CMax= 1.77D+00
   ISh=       5 C1NPrm=   3 C1ESt=      13 C1CSt=      16
     C1SMap=       3 C1AOS=       6 C1Cent=     1
     CentXYZ=      0.000000      0.000000      0.194621
     IPrm=      13 P1Exp= 2.03D+00 P1CMax= 2.66D-01
     IPrm=      14 P1Exp= 5.66D-01 P1CMax= 4.17D-01
     IPrm=      15 P1Exp= 2.22D-01 P1CMax= 2.07D-01
 IType=       3 ShlT= 0 ShlC= 0 T1C1St=       6
   ISh=       6 C1NPrm=   1 C1ESt=      16 C1CSt=      22
     C1SMap=       1 C1AOS=       1 C1Cent=     1
     CentXYZ=      0.000000      0.000000      0.194621
     IPrm=      16 P1Exp= 1.00D+20 P1CMax= 1.80D+29
   ISh=       7 C1NPrm=   1 C1ESt=      17 C1CSt=      23
     C1SMap=       2 C1AOS=       2 C1Cent=     2
     CentXYZ=      0.000000      1.817161     -1.556966
     IPrm=      17 P1Exp= 1.00D+20 P1CMax= 1.80D+29
   ISh=       8 C1NPrm=   1 C1ESt=      18 C1CSt=      24
     C1SMap=       3 C1AOS=       3 C1Cent=     3
     CentXYZ=      0.000000     -1.817161     -1.556966
     IPrm=      18 P1Exp= 1.00D+20 P1CMax= 1.80D+29
 IJTC=   1 IType= 1 JType= 1 T2N2St=     1
   IJTN=   1 NPrm=     9     0 C2St=     1 PDSt=     1 PCSt=     1
   IJTN=   2 NPrm=     9     0 C2St=     1 PDSt=     1 PCSt=     1
    IJShl=     1 C2ShlIJ=     1     1 C2CelJ=     1 C2LocIJ=   1   1 C2FPrm=     9 C2KMax= 0.21D+01 0.21D+01
       C2CDif=      0.000000      0.000000      0.000000
       IJP=       1 A= 0.106625D+04 B= 0.106625D+04 U= 0.238174D-01
                    C= 0.100000D+01
         P2P=  -0.599722D-33 0.119944D-32 0.194621D+00
         P2PMA= 0.000000D+00 0.000000D+00 0.000000D+00
         P2PMB= 0.000000D+00 0.000000D+00 0.000000D+00
       IJP=       2 A= 0.106625D+04 B= 0.194219D+03 U= 0.506906D-01
                    C= 0.100000D+01
         P2P=  -0.599722D-33 0.119944D-32 0.194621D+00
         P2PMA= 0.000000D+00 0.000000D+00 0.000000D+00
         P2PMB= 0.000000D+00 0.000000D+00 0.000000D+00
       IJP=       3 A= 0.106625D+04 B= 0.525633D+02 U= 0.188914D-01
                    C= 0.100000D+01
         P2P=  -0.599722D-33 0.119944D-32 0.194621D+00
         P2PMA= 0.000000D+00 0.000000D+00 0.000000D+00
         P2PMB= 0.000000D+00 0.000000D+00 0.000000D+00
       IJP=       4 A= 0.194219D+03 B= 0.106625D+04 U= 0.506906D-01
                    C= 0.100000D+01
         P2P=  -0.599722D-33 0.119944D-32 0.194621D+00
         P2PMA= 0.000000D+00 0.000000D+00 0.000000D+00
         P2PMB= 0.000000D+00 0.000000D+00 0.000000D+00
       IJP=       5 A= 0.194219D+03 B= 0.194219D+03 U= 0.286576D+00
                    C= 0.100000D+01
         P2P=  -0.599722D-33 0.119944D-32 0.194621D+00
         P2PMA= 0.000000D+00 0.000000D+00 0.000000D+00
         P2PMB= 0.000000D+00 0.000000D+00 0.000000D+00
       IJP=       6 A= 0.194219D+03 B= 0.525633D+02 U= 0.176371D+00
                    C= 0.100000D+01
         P2P=  -0.599722D-33 0.119944D-32 0.194621D+00
         P2PMA= 0.000000D+00 0.000000D+00 0.000000D+00
         P2PMB= 0.000000D+00 0.000000D+00 0.000000D+00
       IJP=       7 A= 0.525633D+02 B= 0.106625D+04 U= 0.188914D-01
                    C= 0.100000D+01
         P2P=  -0.599722D-33 0.119944D-32 0.194621D+00
         P2PMA= 0.000000D+00 0.000000D+00 0.000000D+00
         P2PMB= 0.000000D+00 0.000000D+00 0.000000D+00
       IJP=       8 A= 0.525633D+02 B= 0.194219D+03 U= 0.176371D+00
                    C= 0.100000D+01
         P2P=  -0.599722D-33 0.119944D-32 0.194621D+00
         P2PMA= 0.000000D+00 0.000000D+00 0.000000D+00
         P2PMB= 0.000000D+00 0.000000D+00 0.000000D+00
       IJP=       9 A= 0.525633D+02 B= 0.525633D+02 U= 0.197700D+00
                    C= 0.100000D+01
         P2P=  -0.599722D-33 0.119944D-32 0.194621D+00
         P2PMA= 0.000000D+00 0.000000D+00 0.000000D+00
         P2PMB= 0.000000D+00 0.000000D+00 0.000000D+00
    IJShl=     2 C2ShlIJ=     2     1 C2CelJ=     1 C2LocIJ=   1   1 C2FPrm=     9 C2KMax= 0.12D-01 0.12D-01
       C2CDif=      0.000000      1.817161     -1.751587
       IJP=      10 A= 0.685050D+01 B= 0.106625D+04 U= 0.581646D-12
                    C= 0.100000D+01
         P2P=  -0.595893D-33 0.116004D-01 0.183439D+00
         P2PMA= 0.410839D-32 0.124485D+02-0.119993D+02
         P2PMB=-0.639454D-30-0.193755D+04 0.186763D+04
       IJP=      11 A= 0.685050D+01 B= 0.194219D+03 U= 0.126898D-10
                    C= 0.100000D+01
         P2P=  -0.579289D-33 0.619112D-01 0.134944D+00
         P2PMA= 0.410839D-32 0.124485D+02-0.119993D+02
         P2PMB=-0.116477D-30-0.352927D+03 0.340192D+03
       IJP=      12 A= 0.685050D+01 B= 0.525633D+02 U= 0.144900D-09
                    C= 0.100000D+01
         P2P=  -0.530573D-33 0.209522D+00-0.734004D-02
         P2PMA= 0.410839D-32 0.124485D+02-0.119993D+02
         P2PMB=-0.315233D-31-0.955159D+02 0.920691D+02
       IJP=      13 A= 0.124783D+01 B= 0.106625D+04 U= 0.278628D-04
                    C= 0.100000D+01
         P2P=  -0.599021D-33 0.212413D-02 0.192573D+00
         P2PMA= 0.748349D-33 0.226750D+01-0.218568D+01
         P2PMB=-0.639454D-30-0.193755D+04 0.186763D+04
       IJP=      14 A= 0.124783D+01 B= 0.194219D+03 U= 0.351127D-03
                    C= 0.100000D+01
         P2P=  -0.595893D-33 0.116004D-01 0.183439D+00
         P2PMA= 0.748349D-33 0.226750D+01-0.218568D+01
         P2PMB=-0.116477D-30-0.352927D+03 0.340192D+03
       IJP=      15 A= 0.124783D+01 B= 0.525633D+02 U= 0.809933D-03
                    C= 0.100000D+01
         P2P=  -0.585815D-33 0.421382D-01 0.154003D+00
         P2PMA= 0.748349D-33 0.226750D+01-0.218568D+01
         P2PMB=-0.315233D-31-0.955159D+02 0.920691D+02
       IJP=      16 A= 0.337711D+00 B= 0.106625D+04 U= 0.157149D-03
                    C= 0.100000D+01
         P2P=  -0.599532D-33 0.575362D-03 0.194066D+00
         P2PMA= 0.202532D-33 0.613675D+00-0.591530D+00
         P2PMB=-0.639454D-30-0.193755D+04 0.186763D+04
       IJP=      17 A= 0.337711D+00 B= 0.194219D+03 U= 0.195387D-02
                    C= 0.100000D+01
         P2P=  -0.598681D-33 0.315422D-02 0.191580D+00
         P2PMA= 0.202532D-33 0.613675D+00-0.591530D+00
         P2PMB=-0.116477D-30-0.352927D+03 0.340192D+03
       IJP=      18 A= 0.337711D+00 B= 0.525633D+02 U= 0.431636D-02
                    C= 0.100000D+01
         P2P=  -0.595893D-33 0.116004D-01 0.183439D+00
         P2PMA= 0.202532D-33 0.613675D+00-0.591530D+00
         P2PMB=-0.315233D-31-0.955159D+02 0.920691D+02
    IJShl=     3 C2ShlIJ=     2     2 C2CelJ=     1 C2LocIJ=   1   1 C2FPrm=     9 C2KMax= 0.17D+00 0.17D+00
       C2CDif=      0.000000      0.000000      0.000000
       IJP=      19 A= 0.685050D+01 B= 0.685050D+01 U= 0.238174D-01
                    C= 0.100000D+01
         P2P=   0.000000D+00 0.181716D+01-0.155697D+01
         P2PMA= 0.000000D+00 0.000000D+00 0.000000D+00
         P2PMB= 0.000000D+00 0.000000D+00 0.000000D+00
       IJP=      20 A= 0.685050D+01 B= 0.124783D+01 U= 0.506906D-01
                    C= 0.100000D+01
         P2P=   0.000000D+00 0.181716D+01-0.155697D+01
         P2PMA= 0.000000D+00 0.000000D+00 0.000000D+00
         P2PMB= 0.000000D+00 0.000000D+00 0.000000D+00
       IJP=      21 A= 0.685050D+01 B= 0.337711D+00 U= 0.188914D-01
                    C= 0.100000D+01
         P2P=   0.000000D+00 0.181716D+01-0.155697D+01
         P2PMA= 0.000000D+00 0.000000D+00 0.000000D+00
         P2PMB= 0.000000D+00 0.000000D+00 0.000000D+00
       IJP=      22 A= 0.124783D+01 B= 0.685050D+01 U= 0.506906D-01
                    C= 0.100000D+01
         P2P=   0.000000D+00 0.181716D+01-0.155697D+01
         P2PMA= 0.000000D+00 0.000000D+00 0.000000D+00
         P2PMB= 0.000000D+00 0.000000D+00 0.000000D+00
       IJP=      23 A= 0.124783D+01 B= 0.124783D+01 U= 0.286576D+00
                    C= 0.100000D+01
         P2P=   0.000000D+00 0.181716D+01-0.155697D+01
         P2PMA= 0.000000D+00 0.000000D+00 0.000000D+00
         P2PMB= 0.000000D+00 0.000000D+00 0.000000D+00
       IJP=      24 A= 0.124783D+01 B= 0.337711D+00 U= 0.176371D+00
                    C= 0.100000D+01
         P2P=   0.000000D+00 0.181716D+01-0.155697D+01
         P2PMA= 0.000000D+00 0.000000D+00 0.000000D+00
         P2PMB= 0.000000D+00 0.000000D+00 0.000000D+00
       IJP=      25 A= 0.337711D+00 B= 0.685050D+01 U= 0.188914D-01
                    C= 0.100000D+01
         P2P=   0.000000D+00 0.181716D+01-0.155697D+01
         P2PMA= 0.000000D+00 0.000000D+00 0.000000D+00
         P2PMB= 0.000000D+00 0.000000D+00 0.000000D+00
       IJP=      26 A= 0.337711D+00 B= 0.124783D+01 U= 0.176371D+00
                    C= 0.100000D+01
         P2P=   0.000000D+00 0.181716D+01-0.155697D+01
         P2PMA= 0.000000D+00 0.000000D+00 0.000000D+00
         P2PMB= 0.000000D+00 0.000000D+00 0.000000D+00
       IJP=      27 A= 0.337711D+00 B= 0.337711D+00 U= 0.197700D+00
                    C= 0.100000D+01
         P2P=   0.000000D+00 0.181716D+01-0.155697D+01
         P2PMA= 0.000000D+00 0.000000D+00 0.000000D+00
         P2PMB= 0.000000D+00 0.000000D+00 0.000000D+00
    IJShl=     4 C2ShlIJ=     3     1 C2CelJ=     1 C2LocIJ=   1   1 C2FPrm=     9 C2KMax= 0.12D-01 0.12D-01
       C2CDif=      0.000000     -1.817161     -1.751587
       IJP=      28 A= 0.685050D+01 B= 0.106625D+04 U= 0.581646D-12
                    C= 0.100000D+01
         P2P=  -0.142060D-17-0.116004D-01 0.183439D+00
         P2PMA=-0.152445D-14-0.124485D+02-0.119993D+02
         P2PMB= 0.237274D-12 0.193755D+04 0.186763D+04
       IJP=      29 A= 0.685050D+01 B= 0.194219D+03 U= 0.126898D-10
                    C= 0.100000D+01
         P2P=  -0.758169D-17-0.619112D-01 0.134944D+00
         P2PMA=-0.152445D-14-0.124485D+02-0.119993D+02
         P2PMB= 0.432197D-13 0.352927D+03 0.340192D+03
       IJP=      30 A= 0.685050D+01 B= 0.525633D+02 U= 0.144900D-09
                    C= 0.100000D+01
         P2P=  -0.256581D-16-0.209522D+00-0.734004D-02
         P2PMA=-0.152445D-14-0.124485D+02-0.119993D+02
         P2PMB= 0.116969D-13 0.955159D+02 0.920691D+02
       IJP=      31 A= 0.124783D+01 B= 0.106625D+04 U= 0.278628D-04
                    C= 0.100000D+01
         P2P=  -0.260122D-18-0.212413D-02 0.192573D+00
         P2PMA=-0.277680D-15-0.226750D+01-0.218568D+01
         P2PMB= 0.237274D-12 0.193755D+04 0.186763D+04
       IJP=      32 A= 0.124783D+01 B= 0.194219D+03 U= 0.351127D-03
                    C= 0.100000D+01
         P2P=  -0.142060D-17-0.116004D-01 0.183439D+00
         P2PMA=-0.277680D-15-0.226750D+01-0.218568D+01
         P2PMB= 0.432197D-13 0.352927D+03 0.340192D+03
       IJP=      33 A= 0.124783D+01 B= 0.525633D+02 U= 0.809933D-03
                    C= 0.100000D+01
         P2P=  -0.516027D-17-0.421382D-01 0.154003D+00
         P2PMA=-0.277680D-15-0.226750D+01-0.218568D+01
         P2PMB= 0.116969D-13 0.955159D+02 0.920691D+02
       IJP=      34 A= 0.337711D+00 B= 0.106625D+04 U= 0.157149D-03
                    C= 0.100000D+01
         P2P=  -0.704592D-19-0.575362D-03 0.194066D+00
         P2PMA=-0.751510D-16-0.613675D+00-0.591530D+00
         P2PMB= 0.237274D-12 0.193755D+04 0.186763D+04
       IJP=      35 A= 0.337711D+00 B= 0.194219D+03 U= 0.195387D-02
                    C= 0.100000D+01
         P2P=  -0.386268D-18-0.315422D-02 0.191580D+00
         P2PMA=-0.751510D-16-0.613675D+00-0.591530D+00
         P2PMB= 0.432197D-13 0.352927D+03 0.340192D+03
       IJP=      36 A= 0.337711D+00 B= 0.525633D+02 U= 0.431636D-02
                    C= 0.100000D+01
         P2P=  -0.142060D-17-0.116004D-01 0.183439D+00
         P2PMA=-0.751510D-16-0.613675D+00-0.591530D+00
         P2PMB= 0.116969D-13 0.955159D+02 0.920691D+02
    IJShl=     5 C2ShlIJ=     3     2 C2CelJ=     1 C2LocIJ=   1   1 C2FPrm=     9 C2KMax= 0.20D-01 0.20D-01
       C2CDif=      0.000000     -3.634321      0.000000
       IJP=      37 A= 0.685050D+01 B= 0.685050D+01 U= 0.357094D-11
                    C= 0.100000D+01
         P2P=  -0.111265D-15 0.000000D+00-0.155697D+01
         P2PMA=-0.152445D-14-0.248969D+02 0.000000D+00
         P2PMB= 0.152445D-14 0.248969D+02 0.000000D+00
       IJP=      38 A= 0.685050D+01 B= 0.124783D+01 U= 0.475816D-04
                    C= 0.100000D+01
         P2P=  -0.188242D-15-0.125717D+01-0.155697D+01
         P2PMA=-0.152445D-14-0.248969D+02 0.000000D+00
         P2PMB= 0.277680D-15 0.453501D+01 0.000000D+00
       IJP=      39 A= 0.685050D+01 B= 0.337711D+00 U= 0.225511D-02
                    C= 0.100000D+01
         P2P=  -0.212076D-15-0.164642D+01-0.155697D+01
         P2PMA=-0.152445D-14-0.248969D+02 0.000000D+00
         P2PMB= 0.751510D-16 0.122735D+01 0.000000D+00
       IJP=      40 A= 0.124783D+01 B= 0.685050D+01 U= 0.475816D-04
                    C= 0.100000D+01
         P2P=  -0.342885D-16 0.125717D+01-0.155697D+01
         P2PMA=-0.277680D-15-0.453501D+01 0.000000D+00
         P2PMB= 0.152445D-14 0.248969D+02 0.000000D+00
       IJP=      41 A= 0.124783D+01 B= 0.124783D+01 U= 0.465335D-02
                    C= 0.100000D+01
         P2P=  -0.111265D-15 0.000000D+00-0.155697D+01
         P2PMA=-0.277680D-15-0.453501D+01 0.000000D+00
         P2PMB= 0.277680D-15 0.453501D+01 0.000000D+00
       IJP=      42 A= 0.124783D+01 B= 0.337711D+00 U= 0.304882D-01
                    C= 0.100000D+01
         P2P=  -0.175133D-15-0.104307D+01-0.155697D+01
         P2PMA=-0.277680D-15-0.453501D+01 0.000000D+00
         P2PMB= 0.751510D-16 0.122735D+01 0.000000D+00
       IJP=      43 A= 0.337711D+00 B= 0.685050D+01 U= 0.225511D-02
                    C= 0.100000D+01
         P2P=  -0.104548D-16 0.164642D+01-0.155697D+01
         P2PMA=-0.751510D-16-0.122735D+01 0.000000D+00
         P2PMB= 0.152445D-14 0.248969D+02 0.000000D+00
       IJP=      44 A= 0.337711D+00 B= 0.124783D+01 U= 0.304882D-01
                    C= 0.100000D+01
         P2P=  -0.473978D-16 0.104307D+01-0.155697D+01
         P2PMA=-0.751510D-16-0.122735D+01 0.000000D+00
         P2PMB= 0.277680D-15 0.453501D+01 0.000000D+00
       IJP=      45 A= 0.337711D+00 B= 0.337711D+00 U= 0.648194D-01
                    C= 0.100000D+01
         P2P=  -0.111265D-15 0.000000D+00-0.155697D+01
         P2PMA=-0.751510D-16-0.122735D+01 0.000000D+00
         P2PMB= 0.751510D-16 0.122735D+01 0.000000D+00
    IJShl=     6 C2ShlIJ=     3     3 C2CelJ=     1 C2LocIJ=   1   1 C2FPrm=     9 C2KMax= 0.17D+00 0.17D+00
       C2CDif=      0.000000      0.000000      0.000000
       IJP=      46 A= 0.685050D+01 B= 0.685050D+01 U= 0.238174D-01
                    C= 0.100000D+01
         P2P=  -0.222531D-15-0.181716D+01-0.155697D+01
         P2PMA= 0.000000D+00 0.000000D+00 0.000000D+00
         P2PMB= 0.000000D+00 0.000000D+00 0.000000D+00
       IJP=      47 A= 0.685050D+01 B= 0.124783D+01 U= 0.506906D-01
                    C= 0.100000D+01
         P2P=  -0.222531D-15-0.181716D+01-0.155697D+01
         P2PMA= 0.000000D+00 0.000000D+00 0.000000D+00
         P2PMB= 0.000000D+00 0.000000D+00 0.000000D+00
       IJP=      48 A= 0.685050D+01 B= 0.337711D+00 U= 0.188914D-01
                    C= 0.100000D+01
         P2P=  -0.222531D-15-0.181716D+01-0.155697D+01
         P2PMA= 0.000000D+00 0.000000D+00 0.000000D+00
         P2PMB= 0.000000D+00 0.000000D+00 0.000000D+00
[...]
     11 -0.313715D+00  0.000000D+00  0.229126D+00  0.517071D+00 -0.210275D+00
               11
     11 -0.155697D+01
 ReDoC1: IPurDI=1 IPurFI=1 IPurDO=0 IPurFO=0.
 MO coefficients before ReDoC1: 
               1            2            3
      1 0.276843D+02 0.000000D+00 0.000000D+00
      2 0.133132D+01 0.000000D+00 0.000000D+00
      3 0.000000D+00 0.000000D+00 0.000000D+00
      4 0.000000D+00 0.000000D+00 0.000000D+00
      5 0.000000D+00 0.000000D+00 0.000000D+00
      6 0.460709D-01 0.533709D-01 0.533709D-01
      7 0.000000D+00 0.000000D+00 0.000000D+00
      8 0.000000D+00 0.649031D-01-0.649031D-01
      9 0.000000D+00-0.625610D-01-0.625610D-01
     10 0.335042D-01 0.628247D+00 0.904380D-02
     11 0.335042D-01 0.904380D-02 0.628247D+00
 MO coefficients after ReDoC1: 
               1            2            3
      1 0.276843D+02 0.000000D+00 0.000000D+00
      2 0.133132D+01 0.000000D+00 0.000000D+00
      3 0.000000D+00 0.000000D+00 0.000000D+00
      4 0.000000D+00 0.000000D+00 0.000000D+00
      5 0.000000D+00 0.000000D+00 0.000000D+00
      6 0.460709D-01 0.533709D-01 0.533709D-01
      7 0.000000D+00 0.000000D+00 0.000000D+00
      8 0.000000D+00 0.649031D-01-0.649031D-01
      9 0.000000D+00-0.625610D-01-0.625610D-01
     10 0.335042D-01 0.628247D+00 0.904380D-02
     11 0.335042D-01 0.904380D-02 0.628247D+00
 Fermi contact integrals: 
               1            2            3
      1 0.276843D+02 0.000000D+00 0.000000D+00
      2 0.133132D+01 0.000000D+00 0.000000D+00
      3 0.000000D+00 0.000000D+00 0.000000D+00
      4 0.000000D+00 0.000000D+00 0.000000D+00
      5 0.000000D+00 0.000000D+00 0.000000D+00
      6 0.460709D-01 0.533709D-01 0.533709D-01
      7 0.000000D+00 0.000000D+00 0.000000D+00
      8 0.000000D+00 0.649031D-01-0.649031D-01
      9 0.000000D+00-0.625610D-01-0.625610D-01
     10 0.335042D-01 0.628247D+00 0.904380D-02
     11 0.335042D-01 0.904380D-02 0.628247D+00
 Leave Link  303 at Wed Jun 14 10:46:01 2017, MaxMem=    6291456 cpu:       0.0
 Harris functional with IExCor=  205 diagonalized for initial guess.
 ExpMin= 1.69D-01 ExpMax= 5.33D+02 ExpMxC= 5.33D+02 IAcc=1 IRadAn=         1 AccDes= 1.00D-06
 HarFok:  IExCor= 205 AccDes= 1.00D-06 IRadAn=         1 IDoV=1
 ScaDFX=  1.000000  1.000000  1.000000  1.000000
 Initial guess orbital symmetries:
 Alpha Orbitals:
       Occupied  (A1) (A1) (B2) (A1) (B1) (A1) (B2) (A1) (B1)
       Virtual   (B2) (A1)
 Beta  Orbitals:
       Occupied  (A1) (A1) (B2) (A1) (B1) (A1) (B2) (A1) (B1)
       Virtual   (B2) (A1)
 The electronic state of the initial guess is 1-A1.
 <S**2> of initial guess= 0.0000
 Warning!  Cutoffs for single-point calculations used.
 Requested convergence on RMS density matrix=1.00D-04 within 128 cycles.
 Requested convergence on MAX density matrix=1.00D-02.
 Requested convergence on             energy=5.00D-05.
 No special actions if energy rises.
 Keep R1 and R2 integrals in memory in canonical form, NReq=      423999.
 Convergence on energy, delta-E=-3.56D-06
 SCF Done:  E(UHF) =  -394.311555314     A.U. after    4 cycles
             Convg  =    0.1171D-03             -V/T =  2.0119
             S**2   =   0.0000
 Annihilation of the first spin contaminant:
 S**2 before annihilation     0.0000,   after     0.0000

 **********************************************************************

            Population analysis using the SCF density.

 **********************************************************************

 Orbital symmetries:
 Alpha Orbitals:
       Occupied  (A1) (A1) (B2) (A1) (B1) (A1) (B2) (A1) (B1)
       Virtual   (B2) (A1)
 Beta  Orbitals:
       Occupied  (A1) (A1) (B2) (A1) (B1) (A1) (B2) (A1) (B1)
       Virtual   (B2) (A1)
 The electronic state is 1-A1.
 Alpha  occ. eigenvalues --  -90.74557  -8.64791  -6.28038  -6.27826  -6.27479
 Alpha  occ. eigenvalues --   -0.89604  -0.50390  -0.39467  -0.27782
 Alpha virt. eigenvalues --    0.46797   0.53900
  Beta  occ. eigenvalues --  -90.74557  -8.64791  -6.28038  -6.27826  -6.27479
  Beta  occ. eigenvalues --   -0.89604  -0.50390  -0.39467  -0.27782
  Beta virt. eigenvalues --    0.46797   0.53900
     Alpha Molecular Orbital Coefficients
                           1         2         3         4         5
                        (A1)--O   (A1)--O   (B2)--O   (A1)--O   (B1)--O
     EIGENVALUES --   -90.74557  -8.64791  -6.28038  -6.27826  -6.27479
   1 1   S  1S          0.99416  -0.36726   0.00000  -0.00718   0.00000
   2        2S          0.01713   1.04673   0.00000   0.02083   0.00000
   3        2PX         0.00000   0.00000   0.00000   0.00000   0.98615
   4        2PY         0.00000   0.00000   0.98356   0.00000   0.00000
   5        2PZ        -0.00022  -0.01605   0.00000   0.98367   0.00000
   6        3S         -0.00261   0.05526   0.00000  -0.01100   0.00000
   7        3PX         0.00000   0.00000   0.00000   0.00000   0.04939
   8        3PY         0.00000   0.00000   0.06034   0.00000   0.00000
   9        3PZ         0.00046  -0.00927   0.00000   0.05943   0.00000
  10 2   H  1S          0.00068  -0.01133  -0.01161   0.01191   0.00000
  11 3   H  1S          0.00068  -0.01133   0.01161   0.01191   0.00000
                           6         7         8         9        10
                        (A1)--O   (B2)--O   (A1)--O   (B1)--O   (B2)--V
     EIGENVALUES --    -0.89604  -0.50390  -0.39467  -0.27782   0.46797
   1 1   S  1S          0.08270   0.00000   0.04451   0.00000   0.00000
   2        2S         -0.28302   0.00000  -0.13981   0.00000   0.00000
   3        2PX         0.00000   0.00000   0.00000  -0.31375   0.00000
   4        2PY         0.00000  -0.19484   0.00000   0.00000  -0.27942
   5        2PZ         0.05129   0.00000  -0.22667   0.00000   0.00000
   6        3S          0.79795   0.00000   0.61322   0.00000   0.00000
   7        3PX         0.00000   0.00000   0.00000   1.03368   0.00000
   8        3PY         0.00000   0.54379   0.00000   0.00000   1.04935
   9        3PZ        -0.12357   0.00000   0.68151   0.00000   0.00000
  10 2   H  1S          0.20976   0.48119  -0.33905   0.00000  -0.72458
  11 3   H  1S          0.20976  -0.48119  -0.33905   0.00000   0.72458
                          11
                        (A1)--V
     EIGENVALUES --     0.53900
   1 1   S  1S         -0.04299
   2        2S          0.12108
   3        2PX         0.00000
   4        2PY         0.00000
   5        2PZ        -0.24790
   6        3S         -0.77545
   7        3PX         0.00000
   8        3PY         0.00000
   9        3PZ         0.95610
  10 2   H  1S          0.80482
  11 3   H  1S          0.80482
     Beta Molecular Orbital Coefficients.
                           1         2         3         4         5
                        (A1)--O   (A1)--O   (B2)--O   (A1)--O   (B1)--O
     EIGENVALUES --   -90.74557  -8.64791  -6.28038  -6.27826  -6.27479
   1 1   S  1S          0.99416  -0.36726   0.00000  -0.00718   0.00000
   2        2S          0.01713   1.04673   0.00000   0.02083   0.00000
   3        2PX         0.00000   0.00000   0.00000   0.00000   0.98615
   4        2PY         0.00000   0.00000   0.98356   0.00000   0.00000
   5        2PZ        -0.00022  -0.01605   0.00000   0.98367   0.00000
   6        3S         -0.00261   0.05526   0.00000  -0.01100   0.00000
   7        3PX         0.00000   0.00000   0.00000   0.00000   0.04939
   8        3PY         0.00000   0.00000   0.06034   0.00000   0.00000
   9        3PZ         0.00046  -0.00927   0.00000   0.05943   0.00000
  10 2   H  1S          0.00068  -0.01133  -0.01161   0.01191   0.00000
  11 3   H  1S          0.00068  -0.01133   0.01161   0.01191   0.00000
                           6         7         8         9        10
                        (A1)--O   (B2)--O   (A1)--O   (B1)--O   (B2)--V
     EIGENVALUES --    -0.89604  -0.50390  -0.39467  -0.27782   0.46797
   1 1   S  1S          0.08270   0.00000   0.04451   0.00000   0.00000
   2        2S         -0.28302   0.00000  -0.13981   0.00000   0.00000
   3        2PX         0.00000   0.00000   0.00000  -0.31375   0.00000
   4        2PY         0.00000  -0.19484   0.00000   0.00000  -0.27942
   5        2PZ         0.05129   0.00000  -0.22667   0.00000   0.00000
   6        3S          0.79795   0.00000   0.61322   0.00000   0.00000
   7        3PX         0.00000   0.00000   0.00000   1.03368   0.00000
   8        3PY         0.00000   0.54379   0.00000   0.00000   1.04935
   9        3PZ        -0.12357   0.00000   0.68151   0.00000   0.00000
  10 2   H  1S          0.20976   0.48119  -0.33905   0.00000  -0.72458
  11 3   H  1S          0.20976  -0.48119  -0.33905   0.00000   0.72458
                          11
                        (A1)--V
     EIGENVALUES --     0.53900
   1 1   S  1S         -0.04299
   2        2S          0.12108
   3        2PX         0.00000
   4        2PY         0.00000
   5        2PZ        -0.24790
   6        3S         -0.77545
   7        3PX         0.00000
   8        3PY         0.00000
   9        3PZ         0.95610
  10 2   H  1S          0.80482
  11 3   H  1S          0.80482
     ALPHA DENSITY MATRIX.
                           1         2         3         4         5
   1 1   S  1S          1.13210
   2        2S         -0.39718   1.19603
   3        2PX         0.00000   0.00000   1.07093
   4        2PY         0.00000   0.00000   0.00000   1.00536
   5        2PZ        -0.00724   0.02086   0.00000   0.00000   1.02187
   6        3S          0.07047  -0.25400   0.00000   0.00000  -0.10977
   7        3PX         0.00000   0.00000  -0.27561   0.00000   0.00000
   8        3PY         0.00000   0.00000   0.00000  -0.04660   0.00000
   9        3PZ         0.02355  -0.06877   0.00000   0.00000  -0.10221
  10 2   H  1S          0.00701  -0.02357   0.00000  -0.10518   0.09951
  11 3   H  1S          0.00701  -0.02357   0.00000   0.10518   0.09951
                           6         7         8         9        10
   6        3S          1.01594
   7        3PX         0.00000   1.07093
   8        3PY         0.00000   0.00000   0.29935
   9        3PZ         0.31814   0.00000   0.00000   0.48334
  10 2   H  1S         -0.04129   0.00000   0.26097  -0.25617   0.39090
  11 3   H  1S         -0.04129   0.00000  -0.26097  -0.25617  -0.07246
                          11
  11 3   H  1S          0.39090
     BETA DENSITY MATRIX.
                           1         2         3         4         5
   1 1   S  1S          1.13210
   2        2S         -0.39718   1.19603
   3        2PX         0.00000   0.00000   1.07093
   4        2PY         0.00000   0.00000   0.00000   1.00536
   5        2PZ        -0.00724   0.02086   0.00000   0.00000   1.02187
   6        3S          0.07047  -0.25400   0.00000   0.00000  -0.10977
   7        3PX         0.00000   0.00000  -0.27561   0.00000   0.00000
   8        3PY         0.00000   0.00000   0.00000  -0.04660   0.00000
   9        3PZ         0.02355  -0.06877   0.00000   0.00000  -0.10221
  10 2   H  1S          0.00701  -0.02357   0.00000  -0.10518   0.09951
  11 3   H  1S          0.00701  -0.02357   0.00000   0.10518   0.09951
                           6         7         8         9        10
   6        3S          1.01594
   7        3PX         0.00000   1.07093
   8        3PY         0.00000   0.00000   0.29935
   9        3PZ         0.31814   0.00000   0.00000   0.48334
  10 2   H  1S         -0.04129   0.00000   0.26097  -0.25617   0.39090
  11 3   H  1S         -0.04129   0.00000  -0.26097  -0.25617  -0.07246
                          11
  11 3   H  1S          0.39090
    Full Mulliken population analysis:
                           1         2         3         4         5
   1 1   S  1S          2.26420
   2        2S         -0.26652   2.39206
   3        2PX         0.00000   0.00000   2.14186
   4        2PY         0.00000   0.00000   0.00000   2.01072
   5        2PZ         0.00000   0.00000   0.00000   0.00000   2.04374
   6        3S          0.00201  -0.12349   0.00000   0.00000   0.00000
   7        3PX         0.00000   0.00000  -0.14186   0.00000   0.00000
   8        3PY         0.00000   0.00000   0.00000  -0.02399   0.00000
   9        3PZ         0.00000   0.00000   0.00000   0.00000  -0.05261
  10 2   H  1S          0.00011  -0.00284   0.00000  -0.00434  -0.00396
  11 3   H  1S          0.00011  -0.00284   0.00000  -0.00434  -0.00396
                           6         7         8         9        10
   6        3S          2.03188
   7        3PX         0.00000   2.14186
   8        3PY         0.00000   0.00000   0.59871
   9        3PZ         0.00000   0.00000   0.00000   0.96668
  10 2   H  1S         -0.03315   0.00000   0.16359   0.15478   0.78180
  11 3   H  1S         -0.03315   0.00000   0.16359   0.15478  -0.01957
                          11
  11 3   H  1S          0.78180
     Gross orbital populations:
                         TOTAL     ALPHA     BETA      SPIN
   1 1   S  1S          1.99990   0.99995   0.99995   0.00000
   2        2S          1.99636   0.99818   0.99818   0.00000
   3        2PX         2.00000   1.00000   1.00000   0.00000
   4        2PY         1.97805   0.98903   0.98903   0.00000
   5        2PZ         1.98321   0.99161   0.99161   0.00000
   6        3S          1.84410   0.92205   0.92205   0.00000
   7        3PX         2.00000   1.00000   1.00000   0.00000
   8        3PY         0.90189   0.45095   0.45095   0.00000
   9        3PZ         1.22363   0.61182   0.61182   0.00000
  10 2   H  1S          1.03642   0.51821   0.51821   0.00000
  11 3   H  1S          1.03642   0.51821   0.51821   0.00000
          Condensed to atoms (all electrons):
              1          2          3
     1  S   15.378780   0.274190   0.274190
     2  H    0.274190   0.781802  -0.019572
     3  H    0.274190  -0.019572   0.781802
 Mulliken atomic charges:
              1
     1  S    0.072840
     2  H   -0.036420
     3  H   -0.036420
 Sum of Mulliken charges=   0.00000
 Atomic charges with hydrogens summed into heavy atoms:
              1
     1  S    0.000000
     2  H    0.000000
     3  H    0.000000
 Sum of Mulliken charges=   0.00000
          Atomic-Atomic Spin Densities.
              1          2          3
     1  S    0.000000   0.000000   0.000000
     2  H    0.000000   0.000000   0.000000
     3  H    0.000000   0.000000   0.000000
 Mulliken atomic spin densities:
              1
     1  S    0.000000
     2  H    0.000000
     3  H    0.000000
 Sum of Mulliken spin densities=   0.00000
 Electronic spatial extent (au):  <R**2>=    39.3352
 Charge=     0.0000 electrons
 Dipole moment (field-independent basis, Debye):
    X=     0.0000    Y=     0.0000    Z=    -1.0157  Tot=     1.0157
 Quadrupole moment (field-independent basis, Debye-Ang):
   XX=   -13.2061   YY=   -11.4016   ZZ=   -12.0805
   XY=     0.0000   XZ=     0.0000   YZ=     0.0000
 Traceless Quadrupole moment (field-independent basis, Debye-Ang):
   XX=    -0.9767   YY=     0.8278   ZZ=     0.1489
   XY=     0.0000   XZ=     0.0000   YZ=     0.0000
 Octapole moment (field-independent basis, Debye-Ang**2):
  XXX=     0.0000  YYY=     0.0000  ZZZ=     0.2062  XYY=     0.0000
  XXY=     0.0000  XXZ=    -0.0267  XZZ=     0.0000  YZZ=     0.0000
  YYZ=     0.1804  XYZ=     0.0000
 Hexadecapole moment (field-independent basis, Debye-Ang**3):
 XXXX=   -11.6144 YYYY=   -18.6320 ZZZZ=   -17.5770 XXXY=     0.0000
 XXXZ=     0.0000 YYYX=     0.0000 YYYZ=     0.0000 ZZZX=     0.0000
 ZZZY=     0.0000 XXYY=    -5.1226 XXZZ=    -4.9625 YYZZ=    -5.7250
 XXYZ=     0.0000 YYXZ=     0.0000 ZZXY=     0.0000
 N-N= 1.295388640843D+01 E-N=-9.636083022052D+02  KE= 3.896759982049D+02
 Symmetry A1   KE= 3.172397847684D+02
 Symmetry A2   KE= 0.000000000000D+00
 Symmetry B1   KE= 3.731620150423D+01
 Symmetry B2   KE= 3.512001193231D+01
 Orbital energies and kinetic energies (alpha):
                           1         2
       1  (A1)--O     -90.74557 116.92479
       2  (A1)--O      -8.64791  21.68439
       3  (B2)--O      -6.28038  16.27195
       4  (A1)--O      -6.27826  16.28277
       5  (B1)--O      -6.27479  16.34369
       6  (A1)--O      -0.89604   1.81745
       7  (B2)--O      -0.50390   1.28806
       8  (A1)--O      -0.39467   1.91049
       9  (B1)--O      -0.27782   2.31441
      10  (B2)--V       0.46797   2.47005
      11  (A1)--V       0.53900   2.68933
 Orbital energies and kinetic energies (beta):
                           1         2
       1  (A1)--O     -90.74557 116.92479
       2  (A1)--O      -8.64791  21.68439
       3  (B2)--O      -6.28038  16.27195
       4  (A1)--O      -6.27826  16.28277
       5  (B1)--O      -6.27479  16.34369
       6  (A1)--O      -0.89604   1.81745
       7  (B2)--O      -0.50390   1.28806
       8  (A1)--O      -0.39467   1.91049
       9  (B1)--O      -0.27782   2.31441
      10  (B2)--V       0.46797   2.47005
      11  (A1)--V       0.53900   2.68933
 Total kinetic energy from orbitals= 3.896759982049D+02
                          Isotropic Fermi Contact Couplings
        Atom                 a.u.       MegaHertz       Gauss      10(-4) cm-1
     1  S(33)              0.00000       0.00000       0.00000       0.00000
     2  H(1)               0.00000       0.00000       0.00000       0.00000
     3  H(1)               0.00000       0.00000       0.00000       0.00000
 --------------------------------------------------------
       Center         ----  Spin Dipole Couplings  ----
                      3XX-RR        3YY-RR        3ZZ-RR
 --------------------------------------------------------
     1   Atom        0.000000      0.000000      0.000000
     2   Atom        0.000000      0.000000      0.000000
     3   Atom        0.000000      0.000000      0.000000
 --------------------------------------------------------
                        XY            XZ            YZ
 --------------------------------------------------------
     1   Atom        0.000000      0.000000      0.000000
     2   Atom        0.000000      0.000000      0.000000
     3   Atom        0.000000      0.000000      0.000000
 --------------------------------------------------------


 ---------------------------------------------------------------------------------
              Anisotropic Spin Dipole Couplings in Principal Axis System
 ---------------------------------------------------------------------------------

       Atom             a.u.   MegaHertz   Gauss  10(-4) cm-1        Axes

              Baa     0.0000     0.000     0.000     0.000  1.0000  0.0000  0.0000
     1 S(33)  Bbb     0.0000     0.000     0.000     0.000  0.0000  1.0000  0.0000
              Bcc     0.0000     0.000     0.000     0.000  0.0000  0.0000  1.0000
 
              Baa     0.0000     0.000     0.000     0.000  1.0000  0.0000  0.0000
     2 H(1)   Bbb     0.0000     0.000     0.000     0.000  0.0000  1.0000  0.0000
              Bcc     0.0000     0.000     0.000     0.000  0.0000  0.0000  1.0000
 
              Baa     0.0000     0.000     0.000     0.000  1.0000  0.0000  0.0000
     3 H(1)   Bbb     0.0000     0.000     0.000     0.000  0.0000  1.0000  0.0000
              Bcc     0.0000     0.000     0.000     0.000  0.0000  0.0000  1.0000
 

 ---------------------------------------------------------------------------------


 Test job not archived.
 1|1|UNPC-UNK|SP|UHF|STO-3G|H2S1|PCUSER|14-Jun-2017|0||# UHF/STO-3G IOP
 (3/33=6) POP=FULL||H2S-SINGLET-UHF||0,1|S,0,0.,0.,0.103|H,0,0.,0.9616,
 -0.8239|H,0,0.,-0.9616,-0.8239||Version=x86-Win32-G03RevB.03|State=1-A
 1|HF=-394.3115553|S2=0.|S2-1=0.|S2A=0.|RMSD=1.171e-004|Dipole=0.,0.,-0
 .3995894|PG=C02V [C2(S1),SGV(H2)]||@


 HE WHO LAUGHS LAST PROBABLY DIDN'T GET THE JOKE.
 Job cpu time:  0 days  0 hours  0 minutes  2.0 seconds.
 File lengths (MBytes):  RWF=     11 Int=      0 D2E=      0 Chk=      7 Scr=      1
 Normal termination of Gaussian 03 at Wed Jun 14 10:46:02 2017.
