 Entering Link 1 = C:\G03W\l1.exe PID=       700.
  
 Copyright (c) 1988,1990,1992,1993,1995,1998,2003, Gaussian, Inc.
                  All Rights Reserved.
  
 This is the Gaussian(R) 03 program.  It is based on the
 the Gaussian(R) 98 system (copyright 1998, Gaussian, Inc.),
 the Gaussian(R) 94 system (copyright 1995, Gaussian, Inc.),
 the Gaussian 92(TM) system (copyright 1992, Gaussian, Inc.),
 the Gaussian 90(TM) system (copyright 1990, Gaussian, Inc.),
 the Gaussian 88(TM) system (copyright 1988, Gaussian, Inc.),
 the Gaussian 86(TM) system (copyright 1986, Carnegie Mellon
 University), and the Gaussian 82(TM) system (copyright 1983,
 Carnegie Mellon University). Gaussian is a federally registered
 trademark of Gaussian, Inc.
  
 This software contains proprietary and confidential information,
 including trade secrets, belonging to Gaussian, Inc.
  
 This software is provided under written license and may be
 used, copied, transmitted, or stored only in accord with that
 written license.
  
 The following legend is applicable only to US Government
 contracts under DFARS:
  
                    RESTRICTED RIGHTS LEGEND
  
 Use, duplication or disclosure by the US Government is subject
 to restrictions as set forth in subparagraph (c)(1)(ii) of the
 Rights in Technical Data and Computer Software clause at DFARS
 252.227-7013.
  
 Gaussian, Inc.
 Carnegie Office Park, Building 6, Pittsburgh, PA 15106 USA
  
 The following legend is applicable only to US Government
 contracts under FAR:
  
                    RESTRICTED RIGHTS LEGEND
  
 Use, reproduction and disclosure by the US Government is subject
 to restrictions as set forth in subparagraph (c) of the
 Commercial Computer Software - Restricted Rights clause at FAR
 52.227-19.
  
 Gaussian, Inc.
 Carnegie Office Park, Building 6, Pittsburgh, PA 15106 USA
  
  
 ---------------------------------------------------------------
 Warning -- This program may not be used in any manner that
 competes with the business of Gaussian, Inc. or will provide
 assistance to any competitor of Gaussian, Inc.  The licensee
 of this program is prohibited from giving any competitor of
 Gaussian, Inc. access to this program.  By using this program,
 the user acknowledges that Gaussian, Inc. is engaged in the
 business of creating and licensing software in the field of
 computational chemistry and represents and warrants to the
 licensee that it is not a competitor of Gaussian, Inc. and that
 it will not use this program in any manner prohibited above.
 ---------------------------------------------------------------
  

 Cite this work as:
 Gaussian 03, Revision B.03,
 M. J. Frisch, G. W. Trucks, H. B. Schlegel, G. E. Scuseria, 
 M. A. Robb, J. R. Cheeseman, J. A. Montgomery, Jr., T. Vreven, 
 K. N. Kudin, J. C. Burant, J. M. Millam, S. S. Iyengar, J. Tomasi, 
 V. Barone, B. Mennucci, M. Cossi, G. Scalmani, N. Rega, 
 G. A. Petersson, H. Nakatsuji, M. Hada, M. Ehara, K. Toyota, 
 R. Fukuda, J. Hasegawa, M. Ishida, T. Nakajima, Y. Honda, O. Kitao, 
 H. Nakai, M. Klene, X. Li, J. E. Knox, H. P. Hratchian, J. B. Cross, 
 C. Adamo, J. Jaramillo, R. Gomperts, R. E. Stratmann, O. Yazyev, 
 A. J. Austin, R. Cammi, C. Pomelli, J. W. Ochterski, P. Y. Ayala, 
 K. Morokuma, G. A. Voth, P. Salvador, J. J. Dannenberg, 
 V. G. Zakrzewski, S. Dapprich, A. D. Daniels, M. C. Strain, 
 O. Farkas, D. K. Malick, A. D. Rabuck, K. Raghavachari, 
 J. B. Foresman, J. V. Ortiz, Q. Cui, A. G. Baboul, S. Clifford, 
 J. Cioslowski, B. B. Stefanov, G. Liu, A. Liashenko, P. Piskorz, 
 I. Komaromi, R. L. Martin, D. J. Fox, T. Keith, M. A. Al-Laham, 
 C. Y. Peng, A. Nanayakkara, M. Challacombe, P. M. W. Gill, 
 B. Johnson, W. Chen, M. W. Wong, C. Gonzalez, and J. A. Pople, 
 Gaussian, Inc., Pittsburgh PA, 2003.
 
 *********************************************
 Gaussian 03:  x86-Win32-G03RevB.03 4-May-2003
                  14-Jun-2017 
 *********************************************
 %chk=H2S-TRIPLETE.chk
 %nproc=1
 Will use up to    1 processors via shared memory.
 Default route:  MaxDisk=2000MB
 ---------------------
 # uhf/sto-3g pop=full
 ---------------------
 1/38=1/1;
 2/17=6,18=5,40=1/2;
 3/6=3,11=2,16=1,25=1,30=1/1,2,3;
 4/7=2/1;
 5/5=2,32=1,38=5/2;
 6/7=3,28=1/1;
 99/5=1,9=1/99;
 ------------
 H2S-TRIPLETE
 ------------
 Symbolic Z-matrix:
 Charge =  0 Multiplicity = 3
 S1                    0.        0.        0.103 
 H2                    0.        0.9616   -0.8239 
 H3                    0.       -0.9616   -0.8239 
 
                          Input orientation:                          
 ---------------------------------------------------------------------
 Center     Atomic     Atomic              Coordinates (Angstroms)
 Number     Number      Type              X           Y           Z
 ---------------------------------------------------------------------
    1         16             0        0.000000    0.000000    0.103000
    2          1             0        0.000000    0.961600   -0.823900
    3          1             0        0.000000   -0.961600   -0.823900
 ---------------------------------------------------------------------
                    Distance matrix (angstroms):
                    1          2          3
     1  S    0.000000
     2  H    1.335597   0.000000
     3  H    1.335597   1.923200   0.000000
 Stoichiometry    H2S(3)
 Framework group  C2V[C2(S),SGV(H2)]
 Deg. of freedom     2
 Full point group                 C2V     NOp   4
 Largest Abelian subgroup         C2V     NOp   4
 Largest concise Abelian subgroup C2      NOp   2
                         Standard orientation:                         
 ---------------------------------------------------------------------
 Center     Atomic     Atomic              Coordinates (Angstroms)
 Number     Number      Type              X           Y           Z
 ---------------------------------------------------------------------
    1         16             0        0.000000    0.000000    0.102989
    2          1             0        0.000000    0.961600   -0.823911
    3          1             0        0.000000   -0.961600   -0.823911
 ---------------------------------------------------------------------
 Rotational constants (GHZ):    310.2326978    271.1522099    144.6894828
 Standard basis: STO-3G (5D, 7F)
 There are     6 symmetry adapted basis functions of A1  symmetry.
 There are     0 symmetry adapted basis functions of A2  symmetry.
 There are     2 symmetry adapted basis functions of B1  symmetry.
 There are     3 symmetry adapted basis functions of B2  symmetry.
 Integral buffers will be    262144 words long.
 Raffenetti 2 integral format.
 Two-electron integral symmetry is turned on.
    11 basis functions,    33 primitive gaussians,    11 cartesian basis functions
    10 alpha electrons        8 beta electrons
       nuclear repulsion energy        12.9538864084 Hartrees.
 NAtoms=    3 NActive=    3 NUniq=    2 SFac= 2.76D+00 NAtFMM=   60 Big=F
 One-electron integrals computed using PRISM.
 NBasis=    11 RedAO= T  NBF=     6     0     2     3
 NBsUse=    11 1.00D-06 NBFU=     6     0     2     3
 Harris functional with IExCor=  205 diagonalized for initial guess.
 ExpMin= 1.69D-01 ExpMax= 5.33D+02 ExpMxC= 5.33D+02 IAcc=1 IRadAn=         1 AccDes= 1.00D-06
 HarFok:  IExCor= 205 AccDes= 1.00D-06 IRadAn=         1 IDoV=1
 ScaDFX=  1.000000  1.000000  1.000000  1.000000
 Initial guess orbital symmetries:
 Alpha Orbitals:
       Occupied  (A1) (A1) (B2) (A1) (B1) (A1) (B2) (A1) (B1) (B2)
       Virtual   (A1)
 Beta  Orbitals:
       Occupied  (A1) (A1) (B2) (A1) (B1) (A1) (B2) (A1)
       Virtual   (B1) (B2) (A1)
 The electronic state of the initial guess is 3-A2.
 <S**2> of initial guess= 2.0000
 Warning!  Cutoffs for single-point calculations used.
 Requested convergence on RMS density matrix=1.00D-04 within 128 cycles.
 Requested convergence on MAX density matrix=1.00D-02.
 Requested convergence on             energy=5.00D-05.
 No special actions if energy rises.
 Keep R1 and R2 integrals in memory in canonical form, NReq=      423999.
 Convergence on energy, delta-E=-2.33D-05
 SCF Done:  E(UHF) =  -394.007016319     A.U. after    5 cycles
             Convg  =    0.1402D-03             -V/T =  2.0100
             S**2   =   2.0202
 Annihilation of the first spin contaminant:
 S**2 before annihilation     2.0202,   after     2.0000

 **********************************************************************

            Population analysis using the SCF density.

 **********************************************************************

 Orbital symmetries:
 Alpha Orbitals:
       Occupied  (A1) (A1) (B1) (B2) (A1) (A1) (B2) (A1) (B1) (B2)
       Virtual   (A1)
 Beta  Orbitals:
       Occupied  (A1) (A1) (A1) (B2) (B1) (A1) (B2) (A1)
       Virtual   (B1) (B2) (A1)
 The electronic state is 3-A2.
 Alpha  occ. eigenvalues --  -90.81085  -8.71305  -6.36085  -6.35041  -6.33266
 Alpha  occ. eigenvalues --   -0.96637  -0.57318  -0.46696  -0.40146   0.04505
 Alpha virt. eigenvalues --    0.46434
  Beta  occ. eigenvalues --  -90.79640  -8.69240  -6.33166  -6.31255  -6.30558
  Beta  occ. eigenvalues --   -0.82462  -0.43216  -0.37317
  Beta virt. eigenvalues --    0.17601   0.54383   0.60784
     Alpha Molecular Orbital Coefficients
                           1         2         3         4         5
                        (A1)--O   (A1)--O   (B1)--O   (B2)--O   (A1)--O
     EIGENVALUES --   -90.81085  -8.71305  -6.36085  -6.35041  -6.33266
   1 1   S  1S          0.99414  -0.36725   0.00000   0.00000  -0.00716
   2        2S          0.01719   1.04654   0.00000   0.00000   0.02074
   3        2PX         0.00000   0.00000   0.98576   0.00000   0.00000
   4        2PY         0.00000   0.00000   0.00000   0.98452   0.00000
   5        2PZ        -0.00022  -0.01610   0.00000   0.00000   0.98364
   6        3S         -0.00264   0.05606   0.00000   0.00000  -0.01070
   7        3PX         0.00000   0.00000   0.05066   0.00000   0.00000
   8        3PY         0.00000   0.00000   0.00000   0.05705   0.00000
   9        3PZ         0.00046  -0.00922   0.00000   0.00000   0.05954
  10 2   H  1S          0.00069  -0.01172   0.00000  -0.01083   0.01200
  11 3   H  1S          0.00069  -0.01172   0.00000   0.01083   0.01200
                           6         7         8         9        10
                        (A1)--O   (B2)--O   (A1)--O   (B1)--O   (B2)--O
     EIGENVALUES --    -0.96637  -0.57318  -0.46696  -0.40146   0.04505
   1 1   S  1S          0.08699   0.00000   0.03978   0.00000   0.00000
   2        2S         -0.29600   0.00000  -0.12244   0.00000   0.00000
   3        2PX         0.00000   0.00000   0.00000  -0.31497   0.00000
   4        2PY         0.00000  -0.21787   0.00000   0.00000  -0.25824
   5        2PZ         0.03855   0.00000  -0.21982   0.00000   0.00000
   6        3S          0.86021   0.00000   0.57938   0.00000   0.00000
   7        3PX         0.00000   0.00000   0.00000   1.03362   0.00000
   8        3PY         0.00000   0.63831   0.00000   0.00000   0.99488
   9        3PZ        -0.09103   0.00000   0.64966   0.00000   0.00000
  10 2   H  1S          0.16491   0.41234  -0.38700   0.00000  -0.76587
  11 3   H  1S          0.16491  -0.41234  -0.38700   0.00000   0.76587
                          11
                        (A1)--V
     EIGENVALUES --     0.46434
   1 1   S  1S         -0.03963
   2        2S          0.11003
   3        2PX         0.00000
   4        2PY         0.00000
   5        2PZ        -0.25635
   6        3S         -0.73373
   7        3PX         0.00000
   8        3PY         0.00000
   9        3PZ         0.98158
  10 2   H  1S          0.79354
  11 3   H  1S          0.79354
     Beta Molecular Orbital Coefficients.
                           1         2         3         4         5
                        (A1)--O   (A1)--O   (A1)--O   (B2)--O   (B1)--O
     EIGENVALUES --   -90.79640  -8.69240  -6.33166  -6.31255  -6.30558
   1 1   S  1S          0.99418  -0.36732  -0.00731   0.00000   0.00000
   2        2S          0.01706   1.04712   0.02119   0.00000   0.00000
   3        2PX         0.00000   0.00000   0.00000   0.00000   0.98511
   4        2PY         0.00000   0.00000   0.00000   0.98423   0.00000
   5        2PZ        -0.00022  -0.01649   0.98408   0.00000   0.00000
   6        3S         -0.00257   0.05389  -0.01063   0.00000   0.00000
   7        3PX         0.00000   0.00000   0.00000   0.00000   0.05281
   8        3PY         0.00000   0.00000   0.00000   0.05808   0.00000
   9        3PZ         0.00045  -0.00909   0.05798   0.00000   0.00000
  10 2   H  1S          0.00067  -0.01109   0.01160  -0.01113   0.00000
  11 3   H  1S          0.00067  -0.01109   0.01160   0.01113   0.00000
                           6         7         8         9        10
                        (A1)--O   (B2)--O   (A1)--O   (B1)--V   (B2)--V
     EIGENVALUES --    -0.82462  -0.43216  -0.37317   0.17601   0.54383
   1 1   S  1S          0.08348   0.00000   0.03987   0.00000   0.00000
   2        2S         -0.28531   0.00000  -0.12673   0.00000   0.00000
   3        2PX         0.00000   0.00000   0.00000  -0.31701   0.00000
   4        2PY         0.00000  -0.21547   0.00000   0.00000  -0.26136
   5        2PZ         0.05691   0.00000  -0.24933   0.00000   0.00000
   6        3S          0.81914   0.00000   0.53311   0.00000   0.00000
   7        3PX         0.00000   0.00000   0.00000   1.03351   0.00000
   8        3PY         0.00000   0.62704   0.00000   0.00000   1.00196
   9        3PZ        -0.14697   0.00000   0.77361   0.00000   0.00000
  10 2   H  1S          0.18807   0.42094  -0.25682   0.00000  -0.76118
  11 3   H  1S          0.18807  -0.42094  -0.25682   0.00000   0.76118
                          11
                        (A1)--V
     EIGENVALUES --     0.60784
   1 1   S  1S         -0.04490
   2        2S          0.12662
   3        2PX         0.00000
   4        2PY         0.00000
   5        2PZ        -0.22187
   6        3S         -0.81182
   7        3PX         0.00000
   8        3PY         0.00000
   9        3PZ         0.87974
  10 2   H  1S          0.83986
  11 3   H  1S          0.83986
     ALPHA DENSITY MATRIX.
                           1         2         3         4         5
   1 1   S  1S          1.13238
   2        2S         -0.39802   1.19858
   3        2PX         0.00000   0.00000   1.07093
   4        2PY         0.00000   0.00000   0.00000   1.08344
   5        2PZ        -0.00674   0.01905   0.00000   0.00000   1.01761
   6        3S          0.07474  -0.26716   0.00000   0.00000  -0.10563
   7        3PX         0.00000   0.00000  -0.27561   0.00000   0.00000
   8        3PY         0.00000   0.00000   0.00000  -0.33982   0.00000
   9        3PZ         0.02135  -0.06101   0.00000   0.00000  -0.08760
  10 2   H  1S          0.00385  -0.01344   0.00000   0.09728   0.10342
  11 3   H  1S          0.00385  -0.01344   0.00000  -0.09728   0.10342
                           6         7         8         9        10
   6        3S          1.07891
   7        3PX         0.00000   1.07093
   8        3PY         0.00000   0.00000   1.40048
   9        3PZ         0.29694   0.00000   0.00000   0.43397
  10 2   H  1S         -0.08315   0.00000  -0.49937  -0.26560   0.93395
  11 3   H  1S         -0.08315   0.00000   0.49937  -0.26560  -0.57946
                          11
  11 3   H  1S          0.93395
     BETA DENSITY MATRIX.
                           1         2         3         4         5
   1 1   S  1S          1.13193
   2        2S         -0.39670   1.19466
   3        2PX         0.00000   0.00000   0.97044
   4        2PY         0.00000   0.00000   0.00000   1.01513
   5        2PZ        -0.00654   0.01894   0.00000   0.00000   1.03410
   6        3S          0.06737  -0.24510   0.00000   0.00000  -0.09766
   7        3PX         0.00000   0.00000   0.05202   0.00000   0.00000
   8        3PY         0.00000   0.00000   0.00000  -0.07794   0.00000
   9        3PZ         0.02194  -0.06439   0.00000   0.00000  -0.14404
  10 2   H  1S          0.01011  -0.03246   0.00000  -0.10166   0.08634
  11 3   H  1S          0.01011  -0.03246   0.00000   0.10166   0.08634
                           6         7         8         9        10
   6        3S          0.95822
   7        3PX         0.00000   0.00279
   8        3PY         0.00000   0.00000   0.39655
   9        3PZ         0.29092   0.00000   0.00000   0.62351
  10 2   H  1S          0.01642   0.00000   0.26330  -0.22555   0.27890
  11 3   H  1S          0.01642   0.00000  -0.26330  -0.22555  -0.07573
                          11
  11 3   H  1S          0.27890
    Full Mulliken population analysis:
                           1         2         3         4         5
   1 1   S  1S          2.26431
   2        2S         -0.26665   2.39324
   3        2PX         0.00000   0.00000   2.04137
   4        2PY         0.00000   0.00000   0.00000   2.09857
   5        2PZ         0.00000   0.00000   0.00000   0.00000   2.05171
   6        3S          0.00202  -0.12453   0.00000   0.00000   0.00000
   7        3PX         0.00000   0.00000  -0.05754   0.00000   0.00000
   8        3PY         0.00000   0.00000   0.00000  -0.10751   0.00000
   9        3PZ         0.00000   0.00000   0.00000   0.00000  -0.05961
  10 2   H  1S          0.00011  -0.00276   0.00000  -0.00009  -0.00377
  11 3   H  1S          0.00011  -0.00276   0.00000  -0.00009  -0.00377
                           6         7         8         9        10
   6        3S          2.03714
   7        3PX         0.00000   1.07372
   8        3PY         0.00000   0.00000   1.79703
   9        3PZ         0.00000   0.00000   0.00000   1.05748
  10 2   H  1S         -0.02678   0.00000  -0.07399   0.14838   1.21285
  11 3   H  1S         -0.02678   0.00000  -0.07399   0.14838  -0.08849
                          11
  11 3   H  1S          1.21285
     Gross orbital populations:
                         TOTAL     ALPHA     BETA      SPIN
   1 1   S  1S          1.99990   0.99996   0.99995   0.00001
   2        2S          1.99653   0.99847   0.99806   0.00041
   3        2PX         1.98382   1.00000   0.98382   0.01618
   4        2PY         1.99087   1.00000   0.99087   0.00913
   5        2PZ         1.98454   0.99095   0.99359  -0.00264
   6        3S          1.86107   0.94828   0.91278   0.03550
   7        3PX         1.01618   1.00000   0.01618   0.98382
   8        3PY         1.54154   1.00000   0.54154   0.45846
   9        3PZ         1.29463   0.57191   0.72272  -0.15081
  10 2   H  1S          1.16545   0.74521   0.42024   0.32498
  11 3   H  1S          1.16545   0.74521   0.42024   0.32498
          Condensed to atoms (all electrons):
              1          2          3
     1  S   15.586922   0.041088   0.041088
     2  H    0.041088   1.212848  -0.088485
     3  H    0.041088  -0.088485   1.212848
 Mulliken atomic charges:
              1
     1  S    0.330901
     2  H   -0.165451
     3  H   -0.165451
 Sum of Mulliken charges=   0.00000
 Atomic charges with hydrogens summed into heavy atoms:
              1
     1  S    0.000000
     2  H    0.000000
     3  H    0.000000
 Sum of Mulliken charges=   0.00000
          Atomic-Atomic Spin Densities.
              1          2          3
     1  S    1.874124  -0.262038  -0.262038
     2  H   -0.262038   0.655046  -0.068031
     3  H   -0.262038  -0.068031   0.655046
 Mulliken atomic spin densities:
              1
     1  S    1.350047
     2  H    0.324976
     3  H    0.324976
 Sum of Mulliken spin densities=   2.00000
 Electronic spatial extent (au):  <R**2>=    40.7773
 Charge=     0.0000 electrons
 Dipole moment (field-independent basis, Debye):
    X=     0.0000    Y=     0.0000    Z=     0.1542  Tot=     0.1542
 Quadrupole moment (field-independent basis, Debye-Ang):
   XX=   -11.1884   YY=   -13.8928   ZZ=   -13.5466
   XY=     0.0000   XZ=     0.0000   YZ=     0.0000
 Traceless Quadrupole moment (field-independent basis, Debye-Ang):
   XX=     1.6875   YY=    -1.0169   ZZ=    -0.6706
   XY=     0.0000   XZ=     0.0000   YZ=     0.0000
 Octapole moment (field-independent basis, Debye-Ang**2):
  XXX=     0.0000  YYY=     0.0000  ZZZ=     2.1461  XYY=     0.0000
  XXY=     0.0000  XXZ=     0.3323  XZZ=     0.0000  YZZ=     0.0000
  YYZ=     1.8582  XYZ=     0.0000
 Hexadecapole moment (field-independent basis, Debye-Ang**3):
 XXXX=    -9.0215 YYYY=   -23.1948 ZZZZ=   -20.3773 XXXY=     0.0000
 XXXZ=     0.0000 YYYX=     0.0000 YYYZ=     0.0000 ZZZX=     0.0000
 ZZZY=     0.0000 XXYY=    -5.1152 XXZZ=    -4.7524 YYZZ=    -8.2805
 XXYZ=     0.0000 YYXZ=     0.0000 ZZXY=     0.0000
 N-N= 1.295388640843D+01 E-N=-9.630118044209D+02  KE= 3.900897752136D+02
 Symmetry A1   KE= 3.173886210841D+02
 Symmetry A2   KE= 0.000000000000D+00
 Symmetry B1   KE= 3.497157742977D+01
 Symmetry B2   KE= 3.772957669974D+01
 Orbital energies and kinetic energies (alpha):
                           1         2
       1  (A1)--O     -90.81085 116.92002
       2  (A1)--O      -8.71305  21.68059
       3  (B1)--O      -6.36085  16.33247
       4  (B2)--O      -6.35041  16.29952
       5  (A1)--O      -6.33266  16.28189
       6  (A1)--O      -0.96637   1.94412
       7  (B2)--O      -0.57318   1.42380
       8  (A1)--O      -0.46696   1.79192
       9  (B1)--O      -0.40146   2.32563
      10  (B2)--O       0.04505   2.30674
      11  (A1)--V       0.46434   2.69070
 Orbital energies and kinetic energies (beta):
                           1         2
       1  (A1)--O     -90.79640 116.93073
       2  (A1)--O      -8.69240  21.69464
       3  (A1)--O      -6.33166  16.29501
       4  (B2)--O      -6.31255  16.29099
       5  (B1)--O      -6.30558  16.31348
       6  (A1)--O      -0.82462   1.85704
       7  (B2)--O      -0.43216   1.40853
       8  (A1)--O      -0.37317   1.99268
       9  (B1)--V       0.17601   2.34462
      10  (B2)--V       0.54383   2.33054
      11  (A1)--V       0.60784   2.53912
 Total kinetic energy from orbitals= 3.900897752136D+02
                          Isotropic Fermi Contact Couplings
        Atom                 a.u.       MegaHertz       Gauss      10(-4) cm-1
     1  S(33)              0.24668      42.36476      15.11680      14.13136
     2  H(1)               0.19178     428.62423     152.94378     142.97365
     3  H(1)               0.19178     428.62423     152.94378     142.97365
 --------------------------------------------------------
       Center         ----  Spin Dipole Couplings  ----
                      3XX-RR        3YY-RR        3ZZ-RR
 --------------------------------------------------------
     1   Atom        2.907518      0.956379     -3.863897
     2   Atom       -0.011912      0.003532      0.008379
     3   Atom       -0.011912      0.003532      0.008379
 --------------------------------------------------------
                        XY            XZ            YZ
 --------------------------------------------------------
     1   Atom        0.000000      0.000000      0.000000
     2   Atom        0.000000      0.000000     -0.040270
     3   Atom        0.000000      0.000000      0.040270
 --------------------------------------------------------


 ---------------------------------------------------------------------------------
              Anisotropic Spin Dipole Couplings in Principal Axis System
 ---------------------------------------------------------------------------------

       Atom             a.u.   MegaHertz   Gauss  10(-4) cm-1        Axes

              Baa    -3.8639  -158.416   -56.527   -52.842  0.0000  0.0000  1.0000
     1 S(33)  Bbb     0.9564    39.211    13.991    13.079  0.0000  1.0000  0.0000
              Bcc     2.9075   119.206    42.536    39.763  1.0000  0.0000  0.0000
 
              Baa    -0.0344   -18.348    -6.547    -6.120  0.0000  0.7280  0.6855
     2 H(1)   Bbb    -0.0119    -6.355    -2.268    -2.120  1.0000  0.0000  0.0000
              Bcc     0.0463    24.703     8.815     8.240  0.0000 -0.6855  0.7280
 
              Baa    -0.0344   -18.348    -6.547    -6.120  0.0000  0.7280 -0.6855
     3 H(1)   Bbb    -0.0119    -6.355    -2.268    -2.120  1.0000  0.0000  0.0000
              Bcc     0.0463    24.703     8.815     8.240  0.0000  0.6855  0.7280
 

 ---------------------------------------------------------------------------------

 1|1|UNPC-UNK|SP|UHF|STO-3G|H2S1(3)|PCUSER|14-Jun-2017|0||# UHF/STO-3G 
 POP=FULL||H2S-TRIPLETE||0,3|S,0,0.,0.,0.103|H,0,0.,0.9616,-0.8239|H,0,
 0.,-0.9616,-0.8239||Version=x86-Win32-G03RevB.03|State=3-A2|HF=-394.00
 70163|S2=2.020186|S2-1=0.|S2A=2.|RMSD=1.402e-004|Dipole=0.,0.,0.060672
 4|PG=C02V [C2(S1),SGV(H2)]||@


 SUCCESS IS NEVER CERTAIN,
 FAILURE IS NEVER FINAL.
 Job cpu time:  0 days  0 hours  0 minutes  1.0 seconds.
 File lengths (MBytes):  RWF=     11 Int=      0 D2E=      0 Chk=      7 Scr=      1
 Normal termination of Gaussian 03 at Wed Jun 14 10:41:54 2017.
