 Entering Link 1 = C:\G03W\l1.exe PID=      2724.
  
 Copyright (c) 1988,1990,1992,1993,1995,1998,2003, Gaussian, Inc.
                  All Rights Reserved.
  
 This is the Gaussian(R) 03 program.  It is based on the
 the Gaussian(R) 98 system (copyright 1998, Gaussian, Inc.),
 the Gaussian(R) 94 system (copyright 1995, Gaussian, Inc.),
 the Gaussian 92(TM) system (copyright 1992, Gaussian, Inc.),
 the Gaussian 90(TM) system (copyright 1990, Gaussian, Inc.),
 the Gaussian 88(TM) system (copyright 1988, Gaussian, Inc.),
 the Gaussian 86(TM) system (copyright 1986, Carnegie Mellon
 University), and the Gaussian 82(TM) system (copyright 1983,
 Carnegie Mellon University). Gaussian is a federally registered
 trademark of Gaussian, Inc.
  
 This software contains proprietary and confidential information,
 including trade secrets, belonging to Gaussian, Inc.
  
 This software is provided under written license and may be
 used, copied, transmitted, or stored only in accord with that
 written license.
  
 The following legend is applicable only to US Government
 contracts under DFARS:
  
                    RESTRICTED RIGHTS LEGEND
  
 Use, duplication or disclosure by the US Government is subject
 to restrictions as set forth in subparagraph (c)(1)(ii) of the
 Rights in Technical Data and Computer Software clause at DFARS
 252.227-7013.
  
 Gaussian, Inc.
 Carnegie Office Park, Building 6, Pittsburgh, PA 15106 USA
  
 The following legend is applicable only to US Government
 contracts under FAR:
  
                    RESTRICTED RIGHTS LEGEND
  
 Use, reproduction and disclosure by the US Government is subject
 to restrictions as set forth in subparagraph (c) of the
 Commercial Computer Software - Restricted Rights clause at FAR
 52.227-19.
  
 Gaussian, Inc.
 Carnegie Office Park, Building 6, Pittsburgh, PA 15106 USA
  
  
 ---------------------------------------------------------------
 Warning -- This program may not be used in any manner that
 competes with the business of Gaussian, Inc. or will provide
 assistance to any competitor of Gaussian, Inc.  The licensee
 of this program is prohibited from giving any competitor of
 Gaussian, Inc. access to this program.  By using this program,
 the user acknowledges that Gaussian, Inc. is engaged in the
 business of creating and licensing software in the field of
 computational chemistry and represents and warrants to the
 licensee that it is not a competitor of Gaussian, Inc. and that
 it will not use this program in any manner prohibited above.
 ---------------------------------------------------------------
  

 Cite this work as:
 Gaussian 03, Revision B.03,
 M. J. Frisch, G. W. Trucks, H. B. Schlegel, G. E. Scuseria, 
 M. A. Robb, J. R. Cheeseman, J. A. Montgomery, Jr., T. Vreven, 
 K. N. Kudin, J. C. Burant, J. M. Millam, S. S. Iyengar, J. Tomasi, 
 V. Barone, B. Mennucci, M. Cossi, G. Scalmani, N. Rega, 
 G. A. Petersson, H. Nakatsuji, M. Hada, M. Ehara, K. Toyota, 
 R. Fukuda, J. Hasegawa, M. Ishida, T. Nakajima, Y. Honda, O. Kitao, 
 H. Nakai, M. Klene, X. Li, J. E. Knox, H. P. Hratchian, J. B. Cross, 
 C. Adamo, J. Jaramillo, R. Gomperts, R. E. Stratmann, O. Yazyev, 
 A. J. Austin, R. Cammi, C. Pomelli, J. W. Ochterski, P. Y. Ayala, 
 K. Morokuma, G. A. Voth, P. Salvador, J. J. Dannenberg, 
 V. G. Zakrzewski, S. Dapprich, A. D. Daniels, M. C. Strain, 
 O. Farkas, D. K. Malick, A. D. Rabuck, K. Raghavachari, 
 J. B. Foresman, J. V. Ortiz, Q. Cui, A. G. Baboul, S. Clifford, 
 J. Cioslowski, B. B. Stefanov, G. Liu, A. Liashenko, P. Piskorz, 
 I. Komaromi, R. L. Martin, D. J. Fox, T. Keith, M. A. Al-Laham, 
 C. Y. Peng, A. Nanayakkara, M. Challacombe, P. M. W. Gill, 
 B. Johnson, W. Chen, M. W. Wong, C. Gonzalez, and J. A. Pople, 
 Gaussian, Inc., Pittsburgh PA, 2003.
 
 *********************************************
 Gaussian 03:  x86-Win32-G03RevB.03 4-May-2003
                  19-Jun-2017 
 *********************************************
 % Chk=H2S++-RHF-3-21g-TRIPLETE
 Default route:  MaxDisk=2000MB
 ---------------------
 # rohf/3-21g pop=full
 ---------------------
 1/38=1/1;
 2/17=6,18=5,40=1/2;
 3/5=5,11=2,16=1,25=1,30=1/1,2,3;
 4/7=6/1;
 5/5=2,32=1,38=5/2;
 6/7=3,28=1/1;
 99/5=1,9=1/99;
 ---------------------
 RHF en 3-21g de H2S++
 ---------------------
 Symbolic Z-matrix:
 Charge =  2 Multiplicity = 3
 S1
 H2                   1     1.336 
 H3                   1     1.336    2     92.11 
 
                          Input orientation:                          
 ---------------------------------------------------------------------
 Center     Atomic     Atomic              Coordinates (Angstroms)
 Number     Number      Type              X           Y           Z
 ---------------------------------------------------------------------
    1         16             0        0.000000    0.000000    0.000000
    2          1             0        0.000000    0.000000    1.336000
    3          1             0        1.335094    0.000000   -0.049189
 ---------------------------------------------------------------------
                    Distance matrix (angstroms):
                    1          2          3
     1  S    0.000000
     2  H    1.336000   0.000000
     3  H    1.336000   1.923857   0.000000
 Stoichiometry    H2S(2+,3)
 Framework group  C2V[C2(S),SGV(H2)]
 Deg. of freedom     2
 Full point group                 C2V     NOp   4
 Largest Abelian subgroup         C2V     NOp   4
 Largest concise Abelian subgroup C2      NOp   2
                         Standard orientation:                         
 ---------------------------------------------------------------------
 Center     Atomic     Atomic              Coordinates (Angstroms)
 Number     Number      Type              X           Y           Z
 ---------------------------------------------------------------------
    1         16             0        0.000000    0.000000    0.103016
    2          1             0        0.000000    0.961928   -0.824125
    3          1             0        0.000000   -0.961928   -0.824125
 ---------------------------------------------------------------------
 Rotational constants (GHZ):    310.0716863    270.9670960    144.6017494
 Standard basis: 3-21G (6D, 7F)
 There are     9 symmetry adapted basis functions of A1  symmetry.
 There are     0 symmetry adapted basis functions of A2  symmetry.
 There are     3 symmetry adapted basis functions of B1  symmetry.
 There are     5 symmetry adapted basis functions of B2  symmetry.
 Integral buffers will be    262144 words long.
 Raffenetti 2 integral format.
 Two-electron integral symmetry is turned on.
    17 basis functions,    33 primitive gaussians,    17 cartesian basis functions
     9 alpha electrons        7 beta electrons
       nuclear repulsion energy        12.9499637920 Hartrees.
 NAtoms=    3 NActive=    3 NUniq=    2 SFac= 2.76D+00 NAtFMM=   60 Big=F
 One-electron integrals computed using PRISM.
 NBasis=    17 RedAO= T  NBF=     9     0     3     5
 NBsUse=    17 1.00D-06 NBFU=     9     0     3     5
 Harris functional with IExCor=  205 diagonalized for initial guess.
 ExpMin= 1.42D-01 ExpMax= 1.21D+03 ExpMxC= 1.21D+03 IAcc=1 IRadAn=         1 AccDes= 1.00D-06
 HarFok:  IExCor= 205 AccDes= 1.00D-06 IRadAn=         1 IDoV=1
 ScaDFX=  1.000000  1.000000  1.000000  1.000000
 Initial guess orbital symmetries:
       Occupied  (A1) (A1) (B2) (A1) (B1) (A1) (B2) (A1) (B1)
       Virtual   (B2) (A1) (B2) (A1) (B1) (A1) (A1) (B2)
 The electronic state of the initial guess is 3-B1.
 Warning!  Cutoffs for single-point calculations used.
 Requested convergence on RMS density matrix=1.00D-04 within 128 cycles.
 Requested convergence on MAX density matrix=1.00D-02.
 Requested convergence on             energy=5.00D-05.
 No special actions if energy rises.
 Keep R1 and R2 integrals in memory in canonical form, NReq=      445113.
 Convergence on energy, delta-E=-3.32D-05
 SCF Done:  E(ROHF) =  -395.576044808     A.U. after    8 cycles
             Convg  =    0.1818D-03             -V/T =  1.9996
             S**2   =   2.0000
 Annihilation of the first spin contaminant:
 S**2 before annihilation     2.0000,   after     2.0000

 **********************************************************************

            Population analysis using the SCF density.

 **********************************************************************

 Orbital symmetries:
       Occupied  (A1) (A1) (B2) (A1) (B1) (A1) (B2) (A1) (B1)
       Virtual   (B2) (A1) (A1) (B2) (B1) (A1) (A1) (B2)
 The electronic state is 3-B1.
 Alpha  occ. eigenvalues --  -92.13723  -9.73211  -7.40816  -7.40370  -7.39830
 Alpha  occ. eigenvalues --   -1.66403  -1.25996  -0.67810  -0.60385
 Alpha virt. eigenvalues --   -0.42173  -0.37111   0.02297   0.04435   0.05328
 Alpha virt. eigenvalues --    0.07430   0.54082   0.58981
     Molecular Orbital Coefficients
                           1         2         3         4         5
                        (A1)--O   (A1)--O   (B2)--O   (A1)--O   (B1)--O
     EIGENVALUES --   -92.13723  -9.73211  -7.40816  -7.40370  -7.39830
   1 1   S  1S          0.98645  -0.30136   0.00000  -0.00078   0.00000
   2        2S          0.05115   0.98913   0.00000   0.00276   0.00000
   3        2PX         0.00000   0.00000   0.00000   0.00000   0.97408
   4        2PY         0.00000   0.00000   0.97399   0.00000   0.00000
   5        2PZ        -0.00009  -0.00132   0.00000   0.97334   0.00000
   6        3S         -0.01706   0.13080   0.00000  -0.00417   0.00000
   7        3PX         0.00000   0.00000   0.00000   0.00000   0.08130
   8        3PY         0.00000   0.00000   0.08188   0.00000   0.00000
   9        3PZ         0.00046  -0.00338   0.00000   0.08385   0.00000
  10        4S          0.01115  -0.06948   0.00000   0.01252   0.00000
  11        4PX         0.00000   0.00000   0.00000   0.00000  -0.02309
  12        4PY         0.00000   0.00000  -0.02866   0.00000   0.00000
  13        4PZ        -0.00225   0.01450   0.00000  -0.03053   0.00000
  14 2   H  1S          0.00090  -0.00451  -0.00483   0.00426   0.00000
  15        2S         -0.00285   0.01767   0.00850  -0.00999   0.00000
  16 3   H  1S          0.00090  -0.00451   0.00483   0.00426   0.00000
  17        2S         -0.00285   0.01767  -0.00850  -0.00999   0.00000
                           6         7         8         9        10
                        (A1)--O   (B2)--O   (A1)--O   (B1)--O   (B2)--V
     EIGENVALUES --    -1.66403  -1.25996  -0.67810  -0.60385  -0.42173
   1 1   S  1S          0.07091   0.00000   0.03751   0.00000   0.00000
   2        2S         -0.40545   0.00000  -0.21846   0.00000   0.00000
   3        2PX         0.00000   0.00000   0.00000  -0.31549   0.00000
   4        2PY         0.00000  -0.25054   0.00000   0.00000   0.16945
   5        2PZ         0.08904   0.00000  -0.26770   0.00000   0.00000
   6        3S          0.57793   0.00000   0.35604   0.00000   0.00000
   7        3PX         0.00000   0.00000   0.00000   0.74665   0.00000
   8        3PY         0.00000   0.57275   0.00000   0.00000  -0.40423
   9        3PZ        -0.19706   0.00000   0.62520   0.00000   0.00000
  10        4S          0.35380   0.00000   0.21817   0.00000   0.00000
  11        4PX         0.00000   0.00000   0.00000   0.38351   0.00000
  12        4PY         0.00000   0.19779   0.00000   0.00000  -0.93519
  13        4PZ        -0.09145   0.00000   0.25988   0.00000   0.00000
  14 2   H  1S          0.14610   0.22157  -0.12033   0.00000   0.22081
  15        2S          0.02284   0.16812  -0.08196   0.00000   0.95122
  16 3   H  1S          0.14610  -0.22157  -0.12033   0.00000  -0.22081
  17        2S          0.02284  -0.16812  -0.08196   0.00000  -0.95122
                          11        12        13        14        15
                        (A1)--V   (A1)--V   (B2)--V   (B1)--V   (A1)--V
     EIGENVALUES --    -0.37111   0.02297   0.04435   0.05328   0.07430
   1 1   S  1S         -0.03489  -0.04370   0.00000   0.00000  -0.03196
   2        2S          0.21464   0.22937   0.00000   0.00000   0.15349
   3        2PX         0.00000   0.00000   0.00000   0.30616   0.00000
   4        2PY         0.00000   0.00000   0.29572   0.00000   0.00000
   5        2PZ        -0.13922   0.20745   0.00000   0.00000  -0.20358
   6        3S         -0.36784  -1.43388   0.00000   0.00000  -1.35379
   7        3PX         0.00000   0.00000   0.00000  -1.14822   0.00000
   8        3PY         0.00000   0.00000  -1.12981   0.00000   0.00000
   9        3PZ         0.35094  -0.74915   0.00000   0.00000   0.84037
  10        4S         -1.03867   1.87822   0.00000   0.00000   2.39286
  11        4PX         0.00000   0.00000   0.00000   1.24858   0.00000
  12        4PY         0.00000   0.00000   1.43368   0.00000   0.00000
  13        4PZ         0.90371   0.46089   0.00000   0.00000  -1.77588
  14 2   H  1S          0.16397  -0.05489  -0.15549   0.00000  -0.23121
  15        2S          1.13880  -0.38700  -0.14384   0.00000  -0.85658
  16 3   H  1S          0.16397  -0.05489   0.15549   0.00000  -0.23121
  17        2S          1.13880  -0.38700   0.14384   0.00000  -0.85658
                          16        17
                        (A1)--V   (B2)--V
     EIGENVALUES --     0.54082   0.58981
   1 1   S  1S         -0.02132   0.00000
   2        2S          0.11545   0.00000
   3        2PX         0.00000   0.00000
   4        2PY         0.00000  -0.13737
   5        2PZ        -0.12537   0.00000
   6        3S         -0.56820   0.00000
   7        3PX         0.00000   0.00000
   8        3PY         0.00000   0.42554
   9        3PZ         0.38626   0.00000
  10        4S          1.54436   0.00000
  11        4PX         0.00000   0.00000
  12        4PY         0.00000  -0.86295
  13        4PZ        -0.83803   0.00000
  14 2   H  1S          0.88539  -0.90889
  15        2S         -1.36979   1.34747
  16 3   H  1S          0.88539   0.90889
  17        2S         -1.36979  -1.34747
     ALPHA DENSITY MATRIX.
                           1         2         3         4         5
   1 1   S  1S          1.07033
   2        2S         -0.28457   1.19311
   3        2PX         0.00000   0.00000   1.04835
   4        2PY         0.00000   0.00000   0.00000   1.01143
   5        2PZ        -0.00418   0.02376   0.00000   0.00000   1.02697
   6        3S         -0.00191  -0.18360   0.00000   0.00000  -0.04809
   7        3PX         0.00000   0.00000  -0.15637   0.00000   0.00000
   8        3PY         0.00000   0.00000   0.00000  -0.06375   0.00000
   9        3PZ         0.01088  -0.05977   0.00000   0.00000  -0.10329
  10        4S          0.06520  -0.25923   0.00000   0.00000  -0.01462
  11        4PX         0.00000   0.00000  -0.14348   0.00000   0.00000
  12        4PY         0.00000   0.00000   0.00000  -0.07747   0.00000
  13        4PZ        -0.00330  -0.00555   0.00000   0.00000  -0.10745
  14 2   H  1S          0.00809  -0.03735   0.00000  -0.06022   0.04937
  15        2S         -0.00959   0.02595   0.00000  -0.03384   0.01423
  16 3   H  1S          0.00809  -0.03735   0.00000   0.06022   0.04937
  17        2S         -0.00959   0.02595   0.00000   0.03384   0.01423
                           6         7         8         9        10
   6        3S          0.47818
   7        3PX         0.00000   0.56410
   8        3PY         0.00000   0.00000   0.33475
   9        3PZ         0.10791   0.00000   0.00000   0.43674
  10        4S          0.27282   0.00000   0.00000   0.06797   0.17788
  11        4PX         0.00000   0.28447   0.00000   0.00000   0.00000
  12        4PY         0.00000   0.00000   0.11094   0.00000   0.00000
  13        4PZ         0.04174   0.00000   0.00000   0.17789   0.02293
  14 2   H  1S          0.04097   0.00000   0.12651  -0.10365   0.02581
  15        2S         -0.01358   0.00000   0.09698  -0.05664  -0.01118
  16 3   H  1S          0.04097   0.00000  -0.12651  -0.10365   0.02581
  17        2S         -0.01358   0.00000  -0.09698  -0.05664  -0.01118
                          11        12        13        14        15
  11        4PX         0.14762
  12        4PY         0.00000   0.03994
  13        4PZ         0.00000   0.00000   0.07705
  14 2   H  1S          0.00000   0.04396  -0.04483   0.08498
  15        2S          0.00000   0.03301  -0.02282   0.05028   0.03600
  16 3   H  1S          0.00000  -0.04396  -0.04483  -0.01325  -0.02413
  17        2S          0.00000  -0.03301  -0.02282  -0.02413  -0.02068
                          16        17
  16 3   H  1S          0.08498
  17        2S          0.05028   0.03600
     BETA DENSITY MATRIX.
                           1         2         3         4         5
   1 1   S  1S          1.06892
   2        2S         -0.27638   1.14538
   3        2PX         0.00000   0.00000   0.94882
   4        2PY         0.00000   0.00000   0.00000   1.01143
   5        2PZ         0.00586  -0.03473   0.00000   0.00000   0.95531
   6        3S         -0.01526  -0.10582   0.00000   0.00000   0.04722
   7        3PX         0.00000   0.00000   0.07919   0.00000   0.00000
   8        3PY         0.00000   0.00000   0.00000  -0.06375   0.00000
   9        3PZ        -0.01257   0.07681   0.00000   0.00000   0.06408
  10        4S          0.05702  -0.21157   0.00000   0.00000   0.04378
  11        4PX         0.00000   0.00000  -0.02249   0.00000   0.00000
  12        4PY         0.00000   0.00000   0.00000  -0.07747   0.00000
  13        4PZ        -0.01305   0.05122   0.00000   0.00000  -0.03788
  14 2   H  1S          0.01260  -0.06364   0.00000  -0.06022   0.01716
  15        2S         -0.00651   0.00804   0.00000  -0.03384  -0.00771
  16 3   H  1S          0.01260  -0.06364   0.00000   0.06022   0.01716
  17        2S         -0.00651   0.00804   0.00000   0.03384  -0.00771
                           6         7         8         9        10
   6        3S          0.35142
   7        3PX         0.00000   0.00661
   8        3PY         0.00000   0.00000   0.33475
   9        3PZ        -0.11468   0.00000   0.00000   0.04587
  10        4S          0.19514   0.00000   0.00000  -0.06843   0.13029
  11        4PX         0.00000  -0.00188   0.00000   0.00000   0.00000
  12        4PY         0.00000   0.00000   0.11094   0.00000   0.00000
  13        4PZ        -0.05079   0.00000   0.00000   0.01541  -0.03377
  14 2   H  1S          0.08381   0.00000   0.12651  -0.02842   0.05207
  15        2S          0.01560   0.00000   0.09698  -0.00540   0.00670
  16 3   H  1S          0.08381   0.00000  -0.12651  -0.02842   0.05207
  17        2S          0.01560   0.00000  -0.09698  -0.00540   0.00670
                          11        12        13        14        15
  11        4PX         0.00053
  12        4PY         0.00000   0.03994
  13        4PZ         0.00000   0.00000   0.00951
  14 2   H  1S          0.00000   0.04396  -0.01356   0.07050
  15        2S          0.00000   0.03301  -0.00152   0.04042   0.02928
  16 3   H  1S          0.00000  -0.04396  -0.01356  -0.02773  -0.03400
  17        2S          0.00000  -0.03301  -0.00152  -0.03400  -0.02739
                          16        17
  16 3   H  1S          0.07050
  17        2S          0.04042   0.02928
    Full Mulliken population analysis:
                           1         2         3         4         5
   1 1   S  1S          2.13925
   2        2S         -0.14336   2.33848
   3        2PX         0.00000   0.00000   1.99718
   4        2PY         0.00000   0.00000   0.00000   2.02286
   5        2PZ         0.00000   0.00000   0.00000   0.00000   1.98229
   6        3S         -0.00087  -0.11814   0.00000   0.00000   0.00000
   7        3PX         0.00000   0.00000  -0.02416   0.00000   0.00000
   8        3PY         0.00000   0.00000   0.00000  -0.03992   0.00000
   9        3PZ         0.00000   0.00000   0.00000   0.00000  -0.01228
  10        4S          0.00405  -0.11781   0.00000   0.00000   0.00000
  11        4PX         0.00000   0.00000  -0.01177   0.00000   0.00000
  12        4PY         0.00000   0.00000   0.00000  -0.01099   0.00000
  13        4PZ         0.00000   0.00000   0.00000   0.00000  -0.01031
  14 2   H  1S          0.00001  -0.00097   0.00000  -0.00104  -0.00055
  15        2S         -0.00020   0.00334   0.00000  -0.00164  -0.00015
  16 3   H  1S          0.00001  -0.00097   0.00000  -0.00104  -0.00055
  17        2S         -0.00020   0.00334   0.00000  -0.00164  -0.00015
                           6         7         8         9        10
   6        3S          0.82960
   7        3PX         0.00000   0.57070
   8        3PY         0.00000   0.00000   0.66950
   9        3PZ         0.00000   0.00000   0.00000   0.48262
  10        4S          0.38710   0.00000   0.00000   0.00000   0.30817
  11        4PX         0.00000   0.17792   0.00000   0.00000   0.00000
  12        4PY         0.00000   0.00000   0.13969   0.00000   0.00000
  13        4PZ         0.00000   0.00000   0.00000   0.12170   0.00000
  14 2   H  1S          0.01921   0.00000   0.05000   0.02516   0.02028
  15        2S          0.00081   0.00000   0.04769   0.01470  -0.00266
  16 3   H  1S          0.01921   0.00000   0.05000   0.02516   0.02028
  17        2S          0.00081   0.00000   0.04769   0.01470  -0.00266
                          11        12        13        14        15
  11        4PX         0.14815
  12        4PY         0.00000   0.07989
  13        4PZ         0.00000   0.00000   0.08656
  14 2   H  1S          0.00000   0.02694   0.01724   0.15548
  15        2S          0.00000   0.03022   0.01074   0.05858   0.06527
  16 3   H  1S          0.00000   0.02694   0.01724  -0.00014  -0.00510
  17        2S          0.00000   0.03022   0.01074  -0.00510  -0.01432
                          16        17
  16 3   H  1S          0.15548
  17        2S          0.05858   0.06527
     Gross orbital populations:
                         TOTAL     ALPHA     BETA      SPIN
   1 1   S  1S          1.99870   0.99944   0.99926   0.00018
   2        2S          1.96392   0.98495   0.97897   0.00598
   3        2PX         1.96125   0.98922   0.97202   0.01720
   4        2PY         1.96660   0.98330   0.98330   0.00000
   5        2PZ         1.95829   0.98553   0.97276   0.01277
   6        3S          1.13773   0.63053   0.50720   0.12334
   7        3PX         0.72446   0.69424   0.03022   0.66402
   8        3PY         0.96465   0.48232   0.48232   0.00000
   9        3PZ         0.67175   0.58273   0.08902   0.49371
  10        4S          0.61674   0.34103   0.27572   0.06531
  11        4PX         0.31430   0.31654  -0.00224   0.31878
  12        4PY         0.32292   0.16146   0.16146   0.00000
  13        4PZ         0.25392   0.22804   0.02588   0.20217
  14 2   H  1S          0.36511   0.19850   0.16661   0.03188
  15        2S          0.20728   0.11184   0.09545   0.01639
  16 3   H  1S          0.36511   0.19850   0.16661   0.03188
  17        2S          0.20728   0.11184   0.09545   0.01639
          Condensed to atoms (all electrons):
              1          2          3
     1  S   14.336945   0.259137   0.259137
     2  H    0.259137   0.337919  -0.024664
     3  H    0.259137  -0.024664   0.337919
 Mulliken atomic charges:
              1
     1  S    1.144782
     2  H    0.427609
     3  H    0.427609
 Sum of Mulliken charges=   2.00000
 Atomic charges with hydrogens summed into heavy atoms:
              1
     1  S    2.000000
     2  H    0.000000
     3  H    0.000000
 Sum of Mulliken charges=   2.00000
          Atomic-Atomic Spin Densities.
              1          2          3
     1  S    1.882345   0.010553   0.010553
     2  H    0.010553   0.033938   0.003783
     3  H    0.010553   0.003783   0.033938
 Mulliken atomic spin densities:
              1
     1  S    1.903451
     2  H    0.048275
     3  H    0.048275
 Sum of Mulliken spin densities=   2.00000
 Electronic spatial extent (au):  <R**2>=    28.1397
 Charge=     2.0000 electrons
 Dipole moment (field-independent basis, Debye):
    X=     0.0000    Y=     0.0000    Z=    -1.7097  Tot=     1.7097
 Quadrupole moment (field-independent basis, Debye-Ang):
   XX=    -9.4890   YY=    -6.2848   ZZ=    -5.8462
   XY=     0.0000   XZ=     0.0000   YZ=     0.0000
 Traceless Quadrupole moment (field-independent basis, Debye-Ang):
   XX=    -2.2824   YY=     0.9219   ZZ=     1.3605
   XY=     0.0000   XZ=     0.0000   YZ=     0.0000
 Octapole moment (field-independent basis, Debye-Ang**2):
  XXX=     0.0000  YYY=     0.0000  ZZZ=    -2.2533  XYY=     0.0000
  XXY=     0.0000  XXZ=     0.0904  XZZ=     0.0000  YZZ=     0.0000
  YYZ=    -3.0939  XYZ=     0.0000
 Hexadecapole moment (field-independent basis, Debye-Ang**3):
 XXXX=    -9.1636 YYYY=   -10.8507 ZZZZ=    -9.3420 XXXY=     0.0000
 XXXZ=     0.0000 YYYX=     0.0000 YYYZ=     0.0000 ZZZX=     0.0000
 ZZZY=     0.0000 XXYY=    -3.9729 XXZZ=    -3.4977 YYZZ=    -1.3745
 XXYZ=     0.0000 YYXZ=     0.0000 ZZXY=     0.0000
 N-N= 1.294996379203D+01 E-N=-9.561529436119D+02  KE= 3.957475811287D+02
 Symmetry A1   KE= 3.205002150113D+02
 Symmetry A2   KE= 0.000000000000D+00
 Symmetry B1   KE= 3.707375827194D+01
 Symmetry B2   KE= 3.817360784549D+01
 Orbital energies and kinetic energies (alpha):
                           1         2
       1  (A1)--O     -92.13723 120.25755
       2  (A1)--O      -9.73211  19.19137
       3  (B2)--O      -7.40816  17.35827
       4  (A1)--O      -7.40370  17.33872
       5  (B1)--O      -7.39830  17.35987
       6  (A1)--O      -1.66403   2.28696
       7  (B2)--O      -1.25996   1.72854
       8  (A1)--O      -0.67810   2.35102
       9  (B1)--O      -0.60385   2.35401
      10  (B2)--V      -0.42173   1.24090
      11  (A1)--V      -0.37111   1.47223
      12  (A1)--V       0.02297   2.21453
      13  (B2)--V       0.04435   2.30200
      14  (B1)--V       0.05328   2.39738
      15  (A1)--V       0.07430   1.94181
      16  (A1)--V       0.54082   2.53203
      17  (B2)--V       0.58981   2.38138
 Total kinetic energy from orbitals= 4.004526136154D+02
                          Isotropic Fermi Contact Couplings
        Atom                 a.u.       MegaHertz       Gauss      10(-4) cm-1
     1  S(33)              1.27477     218.92377      78.11744      73.02511
     2  H(1)               0.02547      56.92000      20.31047      18.98647
     3  H(1)               0.02547      56.92000      20.31047      18.98647
 --------------------------------------------------------
       Center         ----  Spin Dipole Couplings  ----
                      3XX-RR        3YY-RR        3ZZ-RR
 --------------------------------------------------------
     1   Atom        3.103466     -4.183685      1.080219
     2   Atom       -0.037941      0.036667      0.001274
     3   Atom       -0.037941      0.036667      0.001274
 --------------------------------------------------------
                        XY            XZ            YZ
 --------------------------------------------------------
     1   Atom        0.000000      0.000000      0.000000
     2   Atom        0.000000      0.000000     -0.075543
     3   Atom        0.000000      0.000000      0.075543
 --------------------------------------------------------


 ---------------------------------------------------------------------------------
              Anisotropic Spin Dipole Couplings in Principal Axis System
 ---------------------------------------------------------------------------------

       Atom             a.u.   MegaHertz   Gauss  10(-4) cm-1        Axes

              Baa    -4.1837  -171.527   -61.205   -57.215  0.0000  1.0000  0.0000
     1 S(33)  Bbb     1.0802    44.288    15.803    14.773  0.0000  0.0000  1.0000
              Bcc     3.1035   127.239    45.402    42.442  1.0000  0.0000  0.0000
 
              Baa    -0.0586   -31.276   -11.160   -10.432  0.0000  0.6213  0.7836
     2 H(1)   Bbb    -0.0379   -20.244    -7.223    -6.753  1.0000  0.0000  0.0000
              Bcc     0.0966    51.519    18.383    17.185  0.0000  0.7836 -0.6213
 
              Baa    -0.0586   -31.276   -11.160   -10.432  0.0000 -0.6213  0.7836
     3 H(1)   Bbb    -0.0379   -20.244    -7.223    -6.753  1.0000  0.0000  0.0000
              Bcc     0.0966    51.519    18.383    17.185  0.0000  0.7836  0.6213
 

 ---------------------------------------------------------------------------------

 1|1|UNPC-UNK|SP|ROHF|3-21G|H2S1(2+,3)|PCUSER|19-Jun-2017|0||# ROHF/3-2
 1G POP=FULL||RHF en 3-21g de H2S++||2,3|S|H,1,1.336|H,1,1.336,2,92.11|
 |Version=x86-Win32-G03RevB.03|State=3-B1|HF=-395.5760448|RMSD=1.818e-0
 04|Dipole=0.484301,0.,0.4667864|PG=C02V [C2(S1),SGV(H2)]||@


 ALL SCIENCE IS EITHER PHYSICS, OR STAMP COLLECTING.
   --ERNEST RUTHERFORD, 1871-1937.
 Job cpu time:  0 days  0 hours  0 minutes  1.0 seconds.
 File lengths (MBytes):  RWF=     11 Int=      0 D2E=      0 Chk=      7 Scr=      1
 Normal termination of Gaussian 03 at Mon Jun 19 11:58:57 2017.
