 Entering Link 1 = C:\G03W\l1.exe PID=       556.
  
 Copyright (c) 1988,1990,1992,1993,1995,1998,2003, Gaussian, Inc.
                  All Rights Reserved.
  
 This is the Gaussian(R) 03 program.  It is based on the
 the Gaussian(R) 98 system (copyright 1998, Gaussian, Inc.),
 the Gaussian(R) 94 system (copyright 1995, Gaussian, Inc.),
 the Gaussian 92(TM) system (copyright 1992, Gaussian, Inc.),
 the Gaussian 90(TM) system (copyright 1990, Gaussian, Inc.),
 the Gaussian 88(TM) system (copyright 1988, Gaussian, Inc.),
 the Gaussian 86(TM) system (copyright 1986, Carnegie Mellon
 University), and the Gaussian 82(TM) system (copyright 1983,
 Carnegie Mellon University). Gaussian is a federally registered
 trademark of Gaussian, Inc.
  
 This software contains proprietary and confidential information,
 including trade secrets, belonging to Gaussian, Inc.
  
 This software is provided under written license and may be
 used, copied, transmitted, or stored only in accord with that
 written license.
  
 The following legend is applicable only to US Government
 contracts under DFARS:
  
                    RESTRICTED RIGHTS LEGEND
  
 Use, duplication or disclosure by the US Government is subject
 to restrictions as set forth in subparagraph (c)(1)(ii) of the
 Rights in Technical Data and Computer Software clause at DFARS
 252.227-7013.
  
 Gaussian, Inc.
 Carnegie Office Park, Building 6, Pittsburgh, PA 15106 USA
  
 The following legend is applicable only to US Government
 contracts under FAR:
  
                    RESTRICTED RIGHTS LEGEND
  
 Use, reproduction and disclosure by the US Government is subject
 to restrictions as set forth in subparagraph (c) of the
 Commercial Computer Software - Restricted Rights clause at FAR
 52.227-19.
  
 Gaussian, Inc.
 Carnegie Office Park, Building 6, Pittsburgh, PA 15106 USA
  
  
 ---------------------------------------------------------------
 Warning -- This program may not be used in any manner that
 competes with the business of Gaussian, Inc. or will provide
 assistance to any competitor of Gaussian, Inc.  The licensee
 of this program is prohibited from giving any competitor of
 Gaussian, Inc. access to this program.  By using this program,
 the user acknowledges that Gaussian, Inc. is engaged in the
 business of creating and licensing software in the field of
 computational chemistry and represents and warrants to the
 licensee that it is not a competitor of Gaussian, Inc. and that
 it will not use this program in any manner prohibited above.
 ---------------------------------------------------------------
  

 Cite this work as:
 Gaussian 03, Revision B.03,
 M. J. Frisch, G. W. Trucks, H. B. Schlegel, G. E. Scuseria, 
 M. A. Robb, J. R. Cheeseman, J. A. Montgomery, Jr., T. Vreven, 
 K. N. Kudin, J. C. Burant, J. M. Millam, S. S. Iyengar, J. Tomasi, 
 V. Barone, B. Mennucci, M. Cossi, G. Scalmani, N. Rega, 
 G. A. Petersson, H. Nakatsuji, M. Hada, M. Ehara, K. Toyota, 
 R. Fukuda, J. Hasegawa, M. Ishida, T. Nakajima, Y. Honda, O. Kitao, 
 H. Nakai, M. Klene, X. Li, J. E. Knox, H. P. Hratchian, J. B. Cross, 
 C. Adamo, J. Jaramillo, R. Gomperts, R. E. Stratmann, O. Yazyev, 
 A. J. Austin, R. Cammi, C. Pomelli, J. W. Ochterski, P. Y. Ayala, 
 K. Morokuma, G. A. Voth, P. Salvador, J. J. Dannenberg, 
 V. G. Zakrzewski, S. Dapprich, A. D. Daniels, M. C. Strain, 
 O. Farkas, D. K. Malick, A. D. Rabuck, K. Raghavachari, 
 J. B. Foresman, J. V. Ortiz, Q. Cui, A. G. Baboul, S. Clifford, 
 J. Cioslowski, B. B. Stefanov, G. Liu, A. Liashenko, P. Piskorz, 
 I. Komaromi, R. L. Martin, D. J. Fox, T. Keith, M. A. Al-Laham, 
 C. Y. Peng, A. Nanayakkara, M. Challacombe, P. M. W. Gill, 
 B. Johnson, W. Chen, M. W. Wong, C. Gonzalez, and J. A. Pople, 
 Gaussian, Inc., Pittsburgh PA, 2003.
 
 *********************************************
 Gaussian 03:  x86-Win32-G03RevB.03 4-May-2003
                  19-Jun-2017 
 *********************************************
 % Chk=H2S++-RHF-3-21g-SINGLETE
 Default route:  MaxDisk=2000MB
 ---------------------
 # rohf/3-21g pop=full
 ---------------------
 1/38=1/1;
 2/17=6,18=5,40=1/2;
 3/5=5,11=2,16=1,25=1,30=1/1,2,3;
 4/7=6/1;
 5/5=2,32=1,38=5/2;
 6/7=3,28=1/1;
 99/5=1,9=1/99;
 --------------------
 RHF en 3-21g de H2S+
 --------------------
 Symbolic Z-matrix:
 Charge =  2 Multiplicity = 1
 S1
 H2                   1     1.336 
 H3                   1     1.336    2     92.11 
 
                          Input orientation:                          
 ---------------------------------------------------------------------
 Center     Atomic     Atomic              Coordinates (Angstroms)
 Number     Number      Type              X           Y           Z
 ---------------------------------------------------------------------
    1         16             0        0.000000    0.000000    0.000000
    2          1             0        0.000000    0.000000    1.336000
    3          1             0        1.335094    0.000000   -0.049189
 ---------------------------------------------------------------------
                    Distance matrix (angstroms):
                    1          2          3
     1  S    0.000000
     2  H    1.336000   0.000000
     3  H    1.336000   1.923857   0.000000
 Stoichiometry    H2S(2+)
 Framework group  C2V[C2(S),SGV(H2)]
 Deg. of freedom     2
 Full point group                 C2V     NOp   4
 Largest Abelian subgroup         C2V     NOp   4
 Largest concise Abelian subgroup C2      NOp   2
                         Standard orientation:                         
 ---------------------------------------------------------------------
 Center     Atomic     Atomic              Coordinates (Angstroms)
 Number     Number      Type              X           Y           Z
 ---------------------------------------------------------------------
    1         16             0        0.000000    0.000000    0.103016
    2          1             0        0.000000    0.961928   -0.824125
    3          1             0        0.000000   -0.961928   -0.824125
 ---------------------------------------------------------------------
 Rotational constants (GHZ):    310.0716863    270.9670960    144.6017494
 Standard basis: 3-21G (6D, 7F)
 There are     9 symmetry adapted basis functions of A1  symmetry.
 There are     0 symmetry adapted basis functions of A2  symmetry.
 There are     3 symmetry adapted basis functions of B1  symmetry.
 There are     5 symmetry adapted basis functions of B2  symmetry.
 Integral buffers will be    262144 words long.
 Raffenetti 2 integral format.
 Two-electron integral symmetry is turned on.
    17 basis functions,    33 primitive gaussians,    17 cartesian basis functions
     8 alpha electrons        8 beta electrons
       nuclear repulsion energy        12.9499637920 Hartrees.
 NAtoms=    3 NActive=    3 NUniq=    2 SFac= 2.76D+00 NAtFMM=   60 Big=F
 One-electron integrals computed using PRISM.
 NBasis=    17 RedAO= T  NBF=     9     0     3     5
 NBsUse=    17 1.00D-06 NBFU=     9     0     3     5
 Harris functional with IExCor=  205 diagonalized for initial guess.
 ExpMin= 1.42D-01 ExpMax= 1.21D+03 ExpMxC= 1.21D+03 IAcc=1 IRadAn=         1 AccDes= 1.00D-06
 HarFok:  IExCor= 205 AccDes= 1.00D-06 IRadAn=         1 IDoV=1
 ScaDFX=  1.000000  1.000000  1.000000  1.000000
 Initial guess orbital symmetries:
       Occupied  (A1) (A1) (B2) (A1) (B1) (A1) (B2) (A1)
       Virtual   (B1) (B2) (A1) (B2) (A1) (B1) (A1) (A1) (B2)
 The electronic state of the initial guess is 1-A1.
 Warning!  Cutoffs for single-point calculations used.
 Requested convergence on RMS density matrix=1.00D-04 within 128 cycles.
 Requested convergence on MAX density matrix=1.00D-02.
 Requested convergence on             energy=5.00D-05.
 No special actions if energy rises.
 Keep R1 and R2 integrals in memory in canonical form, NReq=      445113.
 SCF Done:  E(ROHF) =  -395.573837282     A.U. after    4 cycles
             Convg  =    0.7828D-04             -V/T =  1.9999
             S**2   =   0.0000
 Annihilation of the first spin contaminant:
 S**2 before annihilation     0.0000,   after     0.0000

 **********************************************************************

            Population analysis using the SCF density.

 **********************************************************************

 Orbital symmetries:
       Occupied  (A1) (A1) (B1) (B2) (A1) (A1) (B2) (A1)
       Virtual   (B1) (B2) (A1) (A1) (B2) (B1) (A1) (A1) (B2)
 The electronic state is 1-A1.
 Alpha  occ. eigenvalues --  -92.17876  -9.76782  -7.43797  -7.43701  -7.43499
 Alpha  occ. eigenvalues --   -1.72624  -1.28405  -1.19246
 Alpha virt. eigenvalues --   -0.74112  -0.41826  -0.37585   0.03502   0.04404
 Alpha virt. eigenvalues --    0.06194   0.07164   0.54032   0.59211
     Molecular Orbital Coefficients
                           1         2         3         4         5
                        (A1)--O   (A1)--O   (B1)--O   (B2)--O   (A1)--O
     EIGENVALUES --   -92.17876  -9.76782  -7.43797  -7.43701  -7.43499
   1 1   S  1S          0.98645  -0.30134   0.00000   0.00000  -0.00556
   2        2S          0.05114   0.98919   0.00000   0.00000   0.01925
   3        2PX         0.00000   0.00000   0.97318   0.00000   0.00000
   4        2PY         0.00000   0.00000   0.00000   0.97417   0.00000
   5        2PZ        -0.00023  -0.01612   0.00000   0.00000   0.97429
   6        3S         -0.01706   0.13029   0.00000   0.00000  -0.00469
   7        3PX         0.00000   0.00000   0.08402   0.00000   0.00000
   8        3PY         0.00000   0.00000   0.00000   0.08134   0.00000
   9        3PZ         0.00049  -0.00607   0.00000   0.00000   0.08060
  10        4S          0.01115  -0.06973   0.00000   0.00000   0.01224
  11        4PX         0.00000   0.00000  -0.02435   0.00000   0.00000
  12        4PY         0.00000   0.00000   0.00000  -0.02842   0.00000
  13        4PZ        -0.00229   0.01588   0.00000   0.00000  -0.02931
  14 2   H  1S          0.00090  -0.00456   0.00000  -0.00474   0.00417
  15        2S         -0.00286   0.01811   0.00000   0.00853  -0.00959
  16 3   H  1S          0.00090  -0.00456   0.00000   0.00474   0.00417
  17        2S         -0.00286   0.01811   0.00000  -0.00853  -0.00959
                           6         7         8         9        10
                        (A1)--O   (B2)--O   (A1)--O   (B1)--V   (B2)--V
     EIGENVALUES --    -1.72624  -1.28405  -1.19246  -0.74112  -0.41826
   1 1   S  1S          0.07411   0.00000   0.03162   0.00000   0.00000
   2        2S         -0.42388   0.00000  -0.18595   0.00000   0.00000
   3        2PX         0.00000   0.00000   0.00000  -0.28023   0.00000
   4        2PY         0.00000  -0.25151   0.00000   0.00000   0.17558
   5        2PZ         0.07278   0.00000  -0.26024   0.00000   0.00000
   6        3S          0.61836   0.00000   0.29408   0.00000   0.00000
   7        3PX         0.00000   0.00000   0.00000   0.61255   0.00000
   8        3PY         0.00000   0.57855   0.00000   0.00000  -0.42553
   9        3PZ        -0.16120   0.00000   0.60071   0.00000   0.00000
  10        4S          0.35299   0.00000   0.23303   0.00000   0.00000
  11        4PX         0.00000   0.00000   0.00000   0.52165   0.00000
  12        4PY         0.00000   0.17865   0.00000   0.00000  -0.91398
  13        4PZ        -0.06010   0.00000   0.28226   0.00000   0.00000
  14 2   H  1S          0.13407   0.22197  -0.13633   0.00000   0.21944
  15        2S          0.01957   0.17970  -0.10255   0.00000   0.94412
  16 3   H  1S          0.13407  -0.22197  -0.13633   0.00000  -0.21944
  17        2S          0.01957  -0.17970  -0.10255   0.00000  -0.94412
                          11        12        13        14        15
                        (A1)--V   (A1)--V   (B2)--V   (B1)--V   (A1)--V
     EIGENVALUES --    -0.37585   0.03502   0.04404   0.06194   0.07164
   1 1   S  1S         -0.03392  -0.05340   0.00000   0.00000  -0.01116
   2        2S          0.20835   0.27010   0.00000   0.00000   0.07103
   3        2PX         0.00000   0.00000   0.00000  -0.34128   0.00000
   4        2PY         0.00000   0.00000   0.29045   0.00000   0.00000
   5        2PZ        -0.15453   0.00134   0.00000   0.00000   0.29077
   6        3S         -0.37407  -1.97794   0.00000   0.00000  -0.10352
   7        3PX         0.00000   0.00000   0.00000   1.22484   0.00000
   8        3PY         0.00000   0.00000  -1.11742   0.00000   0.00000
   9        3PZ         0.40425   0.07258   0.00000   0.00000  -1.12566
  10        4S         -0.98484   3.06179   0.00000   0.00000  -0.37530
  11        4PX         0.00000   0.00000   0.00000  -1.19743   0.00000
  12        4PY         0.00000   0.00000   1.44270   0.00000   0.00000
  13        4PZ         0.83984  -0.97503   0.00000   0.00000   1.59600
  14 2   H  1S          0.16007  -0.18570  -0.16255   0.00000   0.13013
  15        2S          1.11073  -0.91820  -0.14775   0.00000   0.36571
  16 3   H  1S          0.16007  -0.18570   0.16255   0.00000   0.13013
  17        2S          1.11073  -0.91820   0.14775   0.00000   0.36571
                          16        17
                        (A1)--V   (B2)--V
     EIGENVALUES --     0.54032   0.59211
   1 1   S  1S         -0.01982   0.00000
   2        2S          0.10738   0.00000
   3        2PX         0.00000   0.00000
   4        2PY         0.00000  -0.13791
   5        2PZ        -0.12492   0.00000
   6        3S         -0.52541   0.00000
   7        3PX         0.00000   0.00000
   8        3PY         0.00000   0.42973
   9        3PZ         0.38388   0.00000
  10        4S          1.49195   0.00000
  11        4PX         0.00000   0.00000
  12        4PY         0.00000  -0.87475
  13        4PZ        -0.82133   0.00000
  14 2   H  1S          0.88854  -0.90789
  15        2S         -1.35738   1.35055
  16 3   H  1S          0.88854   0.90789
  17        2S         -1.35738  -1.35055
     ALPHA DENSITY MATRIX.
                           1         2         3         4         5
   1 1   S  1S          1.07041
   2        2S         -0.28503   1.19573
   3        2PX         0.00000   0.00000   0.94708
   4        2PY         0.00000   0.00000   0.00000   1.01226
   5        2PZ        -0.00361   0.02033   0.00000   0.00000   1.02252
   6        3S         -0.00093  -0.18888   0.00000   0.00000  -0.03819
   7        3PX         0.00000   0.00000   0.08177   0.00000   0.00000
   8        3PY         0.00000   0.00000   0.00000  -0.06628   0.00000
   9        3PZ         0.00891  -0.04780   0.00000   0.00000  -0.08943
  10        4S          0.06548  -0.26113   0.00000   0.00000  -0.02191
  11        4PX         0.00000   0.00000  -0.02369   0.00000   0.00000
  12        4PY         0.00000   0.00000   0.00000  -0.07262   0.00000
  13        4PZ        -0.00241  -0.01198   0.00000   0.00000  -0.10664
  14 2   H  1S          0.00786  -0.03586   0.00000  -0.06045   0.04937
  15        2S         -0.01002   0.02836   0.00000  -0.03689   0.01848
  16 3   H  1S          0.00786  -0.03586   0.00000   0.06045   0.04937
  17        2S         -0.01002   0.02836   0.00000   0.03689   0.01848
                           6         7         8         9        10
   6        3S          0.48614
   7        3PX         0.00000   0.00706
   8        3PY         0.00000   0.00000   0.34133
   9        3PZ         0.07580   0.00000   0.00000   0.39337
  10        4S          0.27748   0.00000   0.00000   0.08450   0.18405
  11        4PX         0.00000  -0.00205   0.00000   0.00000   0.00000
  12        4PY         0.00000   0.00000   0.10105   0.00000   0.00000
  13        4PZ         0.04809   0.00000   0.00000   0.17679   0.04307
  14 2   H  1S          0.04218   0.00000   0.12804  -0.10314   0.01593
  15        2S         -0.01561   0.00000   0.10466  -0.06564  -0.01840
  16 3   H  1S          0.04218   0.00000  -0.12804  -0.10314   0.01593
  17        2S         -0.01561   0.00000  -0.10466  -0.06564  -0.01840
                          11        12        13        14        15
  11        4PX         0.00059
  12        4PY         0.00000   0.03273
  13        4PZ         0.00000   0.00000   0.08440
  14 2   H  1S          0.00000   0.03979  -0.04674   0.08589
  15        2S          0.00000   0.03186  -0.02955   0.05633   0.04369
  16 3   H  1S          0.00000  -0.03979  -0.04674  -0.01270  -0.02337
  17        2S          0.00000  -0.03186  -0.02955  -0.02337  -0.02104
                          16        17
  16 3   H  1S          0.08589
  17        2S          0.05633   0.04369
     BETA DENSITY MATRIX.
                           1         2         3         4         5
   1 1   S  1S          1.07041
   2        2S         -0.28503   1.19573
   3        2PX         0.00000   0.00000   0.94708
   4        2PY         0.00000   0.00000   0.00000   1.01226
   5        2PZ        -0.00361   0.02033   0.00000   0.00000   1.02252
   6        3S         -0.00093  -0.18888   0.00000   0.00000  -0.03819
   7        3PX         0.00000   0.00000   0.08177   0.00000   0.00000
   8        3PY         0.00000   0.00000   0.00000  -0.06628   0.00000
   9        3PZ         0.00891  -0.04780   0.00000   0.00000  -0.08943
  10        4S          0.06548  -0.26113   0.00000   0.00000  -0.02191
  11        4PX         0.00000   0.00000  -0.02369   0.00000   0.00000
  12        4PY         0.00000   0.00000   0.00000  -0.07262   0.00000
  13        4PZ        -0.00241  -0.01198   0.00000   0.00000  -0.10664
  14 2   H  1S          0.00786  -0.03586   0.00000  -0.06045   0.04937
  15        2S         -0.01002   0.02836   0.00000  -0.03689   0.01848
  16 3   H  1S          0.00786  -0.03586   0.00000   0.06045   0.04937
  17        2S         -0.01002   0.02836   0.00000   0.03689   0.01848
                           6         7         8         9        10
   6        3S          0.48614
   7        3PX         0.00000   0.00706
   8        3PY         0.00000   0.00000   0.34133
   9        3PZ         0.07580   0.00000   0.00000   0.39337
  10        4S          0.27748   0.00000   0.00000   0.08450   0.18405
  11        4PX         0.00000  -0.00205   0.00000   0.00000   0.00000
  12        4PY         0.00000   0.00000   0.10105   0.00000   0.00000
  13        4PZ         0.04809   0.00000   0.00000   0.17679   0.04307
  14 2   H  1S          0.04218   0.00000   0.12804  -0.10314   0.01593
  15        2S         -0.01561   0.00000   0.10466  -0.06564  -0.01840
  16 3   H  1S          0.04218   0.00000  -0.12804  -0.10314   0.01593
  17        2S         -0.01561   0.00000  -0.10466  -0.06564  -0.01840
                          11        12        13        14        15
  11        4PX         0.00059
  12        4PY         0.00000   0.03273
  13        4PZ         0.00000   0.00000   0.08440
  14 2   H  1S          0.00000   0.03979  -0.04674   0.08589
  15        2S          0.00000   0.03186  -0.02955   0.05633   0.04369
  16 3   H  1S          0.00000  -0.03979  -0.04674  -0.01270  -0.02337
  17        2S          0.00000  -0.03186  -0.02955  -0.02337  -0.02104
                          16        17
  16 3   H  1S          0.08589
  17        2S          0.05633   0.04369
    Full Mulliken population analysis:
                           1         2         3         4         5
   1 1   S  1S          2.14082
   2        2S         -0.14569   2.39147
   3        2PX         0.00000   0.00000   1.89417
   4        2PY         0.00000   0.00000   0.00000   2.02451
   5        2PZ         0.00000   0.00000   0.00000   0.00000   2.04505
   6        3S         -0.00009  -0.15420   0.00000   0.00000   0.00000
   7        3PX         0.00000   0.00000   0.05120   0.00000   0.00000
   8        3PY         0.00000   0.00000   0.00000  -0.04150   0.00000
   9        3PZ         0.00000   0.00000   0.00000   0.00000  -0.05600
  10        4S          0.00434  -0.13069   0.00000   0.00000   0.00000
  11        4PX         0.00000   0.00000  -0.00336   0.00000   0.00000
  12        4PY         0.00000   0.00000   0.00000  -0.01030   0.00000
  13        4PZ         0.00000   0.00000   0.00000   0.00000  -0.01512
  14 2   H  1S          0.00001  -0.00069   0.00000  -0.00104  -0.00082
  15        2S         -0.00025   0.00558   0.00000  -0.00179  -0.00086
  16 3   H  1S          0.00001  -0.00069   0.00000  -0.00104  -0.00082
  17        2S         -0.00025   0.00558   0.00000  -0.00179  -0.00086
                           6         7         8         9        10
   6        3S          0.97228
   7        3PX         0.00000   0.01412
   8        3PY         0.00000   0.00000   0.68266
   9        3PZ         0.00000   0.00000   0.00000   0.78673
  10        4S          0.45906   0.00000   0.00000   0.00000   0.36809
  11        4PX         0.00000  -0.00258   0.00000   0.00000   0.00000
  12        4PY         0.00000   0.00000   0.12723   0.00000   0.00000
  13        4PZ         0.00000   0.00000   0.00000   0.22260   0.00000
  14 2   H  1S          0.01299   0.00000   0.05061   0.03929   0.00830
  15        2S         -0.01252   0.00000   0.05146   0.03111  -0.02183
  16 3   H  1S          0.01299   0.00000   0.05061   0.03929   0.00830
  17        2S         -0.01252   0.00000   0.05146   0.03111  -0.02183
                          11        12        13        14        15
  11        4PX         0.00119
  12        4PY         0.00000   0.06545
  13        4PZ         0.00000   0.00000   0.16880
  14 2   H  1S          0.00000   0.02439   0.02761   0.17179
  15        2S          0.00000   0.02917   0.02608   0.07276   0.08739
  16 3   H  1S          0.00000   0.02439   0.02761  -0.00009  -0.00410
  17        2S          0.00000   0.02917   0.02608  -0.00410  -0.01254
                          16        17
  16 3   H  1S          0.17179
  17        2S          0.07276   0.08739
     Gross orbital populations:
                         TOTAL     ALPHA     BETA      SPIN
   1 1   S  1S          1.99890   0.99945   0.99945   0.00000
   2        2S          1.97066   0.98533   0.98533   0.00000
   3        2PX         1.94201   0.97100   0.97100   0.00000
   4        2PY         1.96705   0.98353   0.98353   0.00000
   5        2PZ         1.97056   0.98528   0.98528   0.00000
   6        3S          1.27797   0.63898   0.63898   0.00000
   7        3PX         0.06274   0.03137   0.03137   0.00000
   8        3PY         0.97253   0.48627   0.48627   0.00000
   9        3PZ         1.09414   0.54707   0.54707   0.00000
  10        4S          0.67373   0.33687   0.33687   0.00000
  11        4PX        -0.00475  -0.00238  -0.00238   0.00000
  12        4PY         0.28950   0.14475   0.14475   0.00000
  13        4PZ         0.48364   0.24182   0.24182   0.00000
  14 2   H  1S          0.40100   0.20050   0.20050   0.00000
  15        2S          0.24965   0.12483   0.12483   0.00000
  16 3   H  1S          0.40100   0.20050   0.20050   0.00000
  17        2S          0.24965   0.12483   0.12483   0.00000
          Condensed to atoms (all electrons):
              1          2          3
     1  S   14.165137   0.266776   0.266776
     2  H    0.266776   0.404704  -0.020825
     3  H    0.266776  -0.020825   0.404704
 Mulliken atomic charges:
              1
     1  S    1.301311
     2  H    0.349344
     3  H    0.349344
 Sum of Mulliken charges=   2.00000
 Atomic charges with hydrogens summed into heavy atoms:
              1
     1  S    2.000000
     2  H    0.000000
     3  H    0.000000
 Sum of Mulliken charges=   2.00000
          Atomic-Atomic Spin Densities.
              1          2          3
     1  S    0.000000   0.000000   0.000000
     2  H    0.000000   0.000000   0.000000
     3  H    0.000000   0.000000   0.000000
 Mulliken atomic spin densities:
              1
     1  S    0.000000
     2  H    0.000000
     3  H    0.000000
 Sum of Mulliken spin densities=   0.00000
 Electronic spatial extent (au):  <R**2>=    28.7855
 Charge=     2.0000 electrons
 Dipole moment (field-independent basis, Debye):
    X=     0.0000    Y=     0.0000    Z=    -2.7108  Tot=     2.7108
 Quadrupole moment (field-independent basis, Debye-Ang):
   XX=    -7.3581   YY=    -6.7921   ZZ=    -8.3383
   XY=     0.0000   XZ=     0.0000   YZ=     0.0000
 Traceless Quadrupole moment (field-independent basis, Debye-Ang):
   XX=     0.1381   YY=     0.7040   ZZ=    -0.8421
   XY=     0.0000   XZ=     0.0000   YZ=     0.0000
 Octapole moment (field-independent basis, Debye-Ang**2):
  XXX=     0.0000  YYY=     0.0000  ZZZ=    -3.2080  XYY=     0.0000
  XXY=     0.0000  XXZ=    -0.0583  XZZ=     0.0000  YZZ=     0.0000
  YYZ=    -2.8557  XYZ=     0.0000
 Hexadecapole moment (field-independent basis, Debye-Ang**3):
 XXXX=    -5.4382 YYYY=   -11.7344 ZZZZ=   -13.9612 XXXY=     0.0000
 XXXZ=     0.0000 YYYX=     0.0000 YYYZ=     0.0000 ZZZX=     0.0000
 ZZZY=     0.0000 XXYY=    -3.4142 XXZZ=    -3.5352 YYZZ=    -2.6180
 XXYZ=     0.0000 YYXZ=     0.0000 ZZXY=     0.0000
 N-N= 1.294996379203D+01 E-N=-9.557236557578D+02  KE= 3.955956245462D+02
 Symmetry A1   KE= 3.227218967234D+02
 Symmetry A2   KE= 0.000000000000D+00
 Symmetry B1   KE= 3.466657383015D+01
 Symmetry B2   KE= 3.820715399256D+01
 Orbital energies and kinetic energies (alpha):
                           1         2
       1  (A1)--O     -92.17876 120.25852
       2  (A1)--O      -9.76782  19.19519
       3  (B1)--O      -7.43797  17.33329
       4  (B2)--O      -7.43701  17.36342
       5  (A1)--O      -7.43499  17.37304
       6  (A1)--O      -1.72624   2.39784
       7  (B2)--O      -1.28405   1.74016
       8  (A1)--O      -1.19246   2.13635
       9  (B1)--V      -0.74112   1.91349
      10  (B2)--V      -0.41826   1.28269
      11  (A1)--V      -0.37585   1.53246
      12  (A1)--V       0.03502   1.88447
      13  (B2)--V       0.04404   2.24279
      14  (B1)--V       0.06194   2.86448
      15  (A1)--V       0.07164   2.29763
      16  (A1)--V       0.54032   2.51071
      17  (B2)--V       0.59211   2.38202
 Total kinetic energy from orbitals= 3.955956245462D+02
                          Isotropic Fermi Contact Couplings
        Atom                 a.u.       MegaHertz       Gauss      10(-4) cm-1
     1  S(33)              0.00000       0.00000       0.00000       0.00000
     2  H(1)               0.00000       0.00000       0.00000       0.00000
     3  H(1)               0.00000       0.00000       0.00000       0.00000
 --------------------------------------------------------
       Center         ----  Spin Dipole Couplings  ----
                      3XX-RR        3YY-RR        3ZZ-RR
 --------------------------------------------------------
     1   Atom        0.000000      0.000000      0.000000
     2   Atom        0.000000      0.000000      0.000000
     3   Atom        0.000000      0.000000      0.000000
 --------------------------------------------------------
                        XY            XZ            YZ
 --------------------------------------------------------
     1   Atom        0.000000      0.000000      0.000000
     2   Atom        0.000000      0.000000      0.000000
     3   Atom        0.000000      0.000000      0.000000
 --------------------------------------------------------


 ---------------------------------------------------------------------------------
              Anisotropic Spin Dipole Couplings in Principal Axis System
 ---------------------------------------------------------------------------------

       Atom             a.u.   MegaHertz   Gauss  10(-4) cm-1        Axes

              Baa     0.0000     0.000     0.000     0.000  1.0000  0.0000  0.0000
     1 S(33)  Bbb     0.0000     0.000     0.000     0.000  0.0000  1.0000  0.0000
              Bcc     0.0000     0.000     0.000     0.000  0.0000  0.0000  1.0000
 
              Baa     0.0000     0.000     0.000     0.000  1.0000  0.0000  0.0000
     2 H(1)   Bbb     0.0000     0.000     0.000     0.000  0.0000  1.0000  0.0000
              Bcc     0.0000     0.000     0.000     0.000  0.0000  0.0000  1.0000
 
              Baa     0.0000     0.000     0.000     0.000  1.0000  0.0000  0.0000
     3 H(1)   Bbb     0.0000     0.000     0.000     0.000  0.0000  1.0000  0.0000
              Bcc     0.0000     0.000     0.000     0.000  0.0000  0.0000  1.0000
 

 ---------------------------------------------------------------------------------

 1|1|UNPC-UNK|SP|ROHF|3-21G|H2S1(2+)|PCUSER|19-Jun-2017|0||# ROHF/3-21G
  POP=FULL||RHF en 3-21g de H2S+||2,1|S|H,1,1.336|H,1,1.336,2,92.11||Ve
 rsion=x86-Win32-G03RevB.03|State=1-A1|HF=-395.5738373|RMSD=7.828e-005|
 Dipole=0.7679075,0.,0.7401364|PG=C02V [C2(S1),SGV(H2)]||@


 ALL SCIENCE IS EITHER PHYSICS, OR STAMP COLLECTING.
   --ERNEST RUTHERFORD, 1871-1937.
 Job cpu time:  0 days  0 hours  0 minutes  1.0 seconds.
 File lengths (MBytes):  RWF=     11 Int=      0 D2E=      0 Chk=      7 Scr=      1
 Normal termination of Gaussian 03 at Mon Jun 19 11:58:47 2017.
