 Entering Link 1 = C:\G09W\l1.exe PID=      5500.
  
 Copyright (c) 1988,1990,1992,1993,1995,1998,2003,2009,2010,
            Gaussian, Inc.  All Rights Reserved.
  
 This is part of the Gaussian(R) 09 program.  It is based on
 the Gaussian(R) 03 system (copyright 2003, Gaussian, Inc.),
 the Gaussian(R) 98 system (copyright 1998, Gaussian, Inc.),
 the Gaussian(R) 94 system (copyright 1995, Gaussian, Inc.),
 the Gaussian 92(TM) system (copyright 1992, Gaussian, Inc.),
 the Gaussian 90(TM) system (copyright 1990, Gaussian, Inc.),
 the Gaussian 88(TM) system (copyright 1988, Gaussian, Inc.),
 the Gaussian 86(TM) system (copyright 1986, Carnegie Mellon
 University), and the Gaussian 82(TM) system (copyright 1983,
 Carnegie Mellon University). Gaussian is a federally registered
 trademark of Gaussian, Inc.
  
 This software contains proprietary and confidential information,
 including trade secrets, belonging to Gaussian, Inc.
  
 This software is provided under written license and may be
 used, copied, transmitted, or stored only in accord with that
 written license.
  
 The following legend is applicable only to US Government
 contracts under FAR:
  
                    RESTRICTED RIGHTS LEGEND
  
 Use, reproduction and disclosure by the US Government is
 subject to restrictions as set forth in subparagraphs (a)
 and (c) of the Commercial Computer Software - Restricted
 Rights clause in FAR 52.227-19.
  
 Gaussian, Inc.
 340 Quinnipiac St., Bldg. 40, Wallingford CT 06492
  
  
 ---------------------------------------------------------------
 Warning -- This program may not be used in any manner that
 competes with the business of Gaussian, Inc. or will provide
 assistance to any competitor of Gaussian, Inc.  The licensee
 of this program is prohibited from giving any competitor of
 Gaussian, Inc. access to this program.  By using this program,
 the user acknowledges that Gaussian, Inc. is engaged in the
 business of creating and licensing software in the field of
 computational chemistry and represents and warrants to the
 licensee that it is not a competitor of Gaussian, Inc. and that
 it will not use this program in any manner prohibited above.
 ---------------------------------------------------------------
  

 Cite this work as:
 Gaussian 09, Revision B.01,
 M. J. Frisch, G. W. Trucks, H. B. Schlegel, G. E. Scuseria, 
 M. A. Robb, J. R. Cheeseman, G. Scalmani, V. Barone, B. Mennucci, 
 G. A. Petersson, H. Nakatsuji, M. Caricato, X. Li, H. P. Hratchian, 
 A. F. Izmaylov, J. Bloino, G. Zheng, J. L. Sonnenberg, M. Hada, 
 M. Ehara, K. Toyota, R. Fukuda, J. Hasegawa, M. Ishida, T. Nakajima, 
 Y. Honda, O. Kitao, H. Nakai, T. Vreven, J. A. Montgomery, Jr., 
 J. E. Peralta, F. Ogliaro, M. Bearpark, J. J. Heyd, E. Brothers, 
 K. N. Kudin, V. N. Staroverov, T. Keith, R. Kobayashi, J. Normand, 
 K. Raghavachari, A. Rendell, J. C. Burant, S. S. Iyengar, J. Tomasi, 
 M. Cossi, N. Rega, J. M. Millam, M. Klene, J. E. Knox, J. B. Cross, 
 V. Bakken, C. Adamo, J. Jaramillo, R. Gomperts, R. E. Stratmann, 
 O. Yazyev, A. J. Austin, R. Cammi, C. Pomelli, J. W. Ochterski, 
 R. L. Martin, K. Morokuma, V. G. Zakrzewski, G. A. Voth, 
 P. Salvador, J. J. Dannenberg, S. Dapprich, A. D. Daniels, 
 O. Farkas, J. B. Foresman, J. V. Ortiz, J. Cioslowski, 
 and D. J. Fox, Gaussian, Inc., Wallingford CT, 2010.
 
 ******************************************
 Gaussian 09:  IA32W-G09RevB.01 12-Aug-2010
                02-Jul-2017 
 ******************************************
 %Chk=H2S-CID-cc-pVDZ -SCAN-GEO-SYM
 ----------------------------
 # cid/cc-pVDZ scan guess=mix
 ----------------------------
 1/38=1,60=1/1,8;
 2/12=2,17=6,18=5,29=3,40=1/2;
 3/5=16,11=9,16=1,25=1,30=1/1,2,3;
 4/13=-1/1;
 5/5=2,38=5/2;
 8/6=3,9=120000,10=1/1,4;
 9/5=1/13;
 6/7=2,8=2,9=2,10=2,18=1/1;
 1/60=1/8(1);
 99/9=1/99;
 2/29=3/2;
 3/5=16,11=9,16=1,25=1,30=1/1,2,3;
 4/5=5,16=3/1;
 5/5=2,38=5/2;
 8/6=3,9=120000,10=1/1,4;
 9/5=1/13;
 1/60=1/8(-6);
 99/9=1/99;
 ----------------------------------------
 Disociacion simetrica CID cc-pVDZ de H2S
 ----------------------------------------
 Symbolic Z-matrix:
 Charge =  0 Multiplicity = 1
 S
 H                    1    r
 H                    1    r        2    aHSH
       Variables:
  r                     3.     Scan 20   -0.1    
  aHSH                 92.11                     
 
 Scan the potential surface.
 Variable   Value     No. Steps Step-Size
 -------- ----------- --------- ---------
     1       3.000000      20     -0.1000
 A total of     21 points will be computed.
 ---------------------------------------------------------------------------------------------------
                            Z-MATRIX (ANGSTROMS AND DEGREES)
   CD    Cent   Atom    N1       Length/X        N2       Alpha/Y        N3        Beta/Z          J
 ---------------------------------------------------------------------------------------------------
      1      1  S 
      2      2  H        1   3.000000(     1)
      3      3  H        1   3.000000(     2)      2   92.110(     3)
 ---------------------------------------------------------------------------------------------------
                         Z-Matrix orientation:                         
 ---------------------------------------------------------------------
 Center     Atomic      Atomic             Coordinates (Angstroms)
 Number     Number       Type             X           Y           Z
 ---------------------------------------------------------------------
      1         16           0        0.000000    0.000000    0.000000
      2          1           0        0.000000    0.000000    3.000000
      3          1           0        2.997966    0.000000   -0.110454
 ---------------------------------------------------------------------
                    Distance matrix (angstroms):
                    1          2          3
     1  S    0.000000
     2  H    3.000000   0.000000
     3  H    3.000000   4.320038   0.000000
 Stoichiometry    H2S
 Framework group  C2V[C2(S),SGV(H2)]
 Deg. of freedom     2
 Full point group                 C2V     NOp   4
 Largest Abelian subgroup         C2V     NOp   4
 Largest concise Abelian subgroup C2      NOp   2
                         Standard orientation:                         
 ---------------------------------------------------------------------
 Center     Atomic      Atomic             Coordinates (Angstroms)
 Number     Number       Type             X           Y           Z
 ---------------------------------------------------------------------
      1         16           0        0.000000    0.000000    0.231323
      2          1           0        0.000000    2.160019   -1.850580
      3          1           0        0.000000   -2.160019   -1.850580
 ---------------------------------------------------------------------
 Rotational constants (GHZ):     61.4939680     53.7386761     28.6776760
 Standard basis: CC-pVDZ (5D, 7F)
 There are    13 symmetry adapted basis functions of A1  symmetry.
 There are     2 symmetry adapted basis functions of A2  symmetry.
 There are     5 symmetry adapted basis functions of B1  symmetry.
 There are     8 symmetry adapted basis functions of B2  symmetry.
 Integral buffers will be    262144 words long.
 Raffenetti 1 integral format.
 Two-electron integral symmetry is turned on.
    28 basis functions,    85 primitive gaussians,    29 cartesian basis functions
     9 alpha electrons        9 beta electrons
       nuclear repulsion energy         5.7670505452 Hartrees.
 NAtoms=    3 NActive=    3 NUniq=    2 SFac= 2.25D+00 NAtFMM=   50 NAOKFM=F Big=F
 One-electron integrals computed using PRISM.
 NBasis=    28 RedAO= T  NBF=    13     2     5     8
 NBsUse=    28 1.00D-06 NBFU=    13     2     5     8
 Harris functional with IExCor=  205 diagonalized for initial guess.
 ExpMin= 1.22D-01 ExpMax= 1.11D+05 ExpMxC= 1.07D+03 IAcc=2 IRadAn=         0 AccDes= 0.00D+00
 HarFok:  IExCor=  205 AccDes= 0.00D+00 IRadAn=         0 IDoV= 1
 ScaDFX=  1.000000  1.000000  1.000000  1.000000
 FoFCou: FMM=F IPFlag=           0 FMFlag=      100000 FMFlg1=           0
         NFxFlg=           0 DoJE=T BraDBF=F KetDBF=T FulRan=T
         Omega=  0.000000  0.000000  1.000000  0.000000  0.000000 ICntrl=     500 IOpCl=  0
         NMat0=    1 NMatS0=    1 NMatT0=    0 NMatD0=    1 NMtDS0=    0 NMtDT0=    0
         I1Cent=           4 NGrid=           0.
 Petite list used in FoFCou.
 Mixing orbitals, IMix= 1 IMixAn=  0 NRI=1 NE=    9 Coef=  7.07106781D-01  7.07106781D-01
 Initial guess orbital symmetries:
       Occupied  (A1) (A1) (B2) (A1) (B1) (A1) (B2) (A1) (?A)
       Virtual   (?A) (B2) (A1) (B2) (A1) (B1) (B2) (A1) (A1) (A2)
                 (B1) (A1) (B2) (A2) (B2) (A1) (B1) (B2) (A1)
 Requested convergence on RMS density matrix=1.00D-08 within 128 cycles.
 Requested convergence on MAX density matrix=1.00D-06.
 Requested convergence on             energy=1.00D-06.
 No special actions if energy rises.
 Keep R1 ints in memory in canonical form, NReq=935895.
 An orbital has undefined symmetry, so N**3 symmetry is turned off.
 Density matrix breaks symmetry, PCut= 1.00D-04
 Density matrix has no symmetry -- integrals replicated.
 Density matrix breaks symmetry, PCut= 1.00D-07
 Density matrix has no symmetry -- integrals replicated.
 Density matrix breaks symmetry, PCut= 1.00D-07
 Density matrix has no symmetry -- integrals replicated.
 Density matrix breaks symmetry, PCut= 1.00D-07
 Density matrix has no symmetry -- integrals replicated.
 Density matrix breaks symmetry, PCut= 1.00D-07
 Density matrix has no symmetry -- integrals replicated.
 Density matrix breaks symmetry, PCut= 1.00D-07
 Density matrix has no symmetry -- integrals replicated.
 Density matrix breaks symmetry, PCut= 1.00D-07
 Density matrix has no symmetry -- integrals replicated.
 Density matrix breaks symmetry, PCut= 1.00D-07
 Density matrix has no symmetry -- integrals replicated.
 Density matrix breaks symmetry, PCut= 1.00D-07
 Density matrix has no symmetry -- integrals replicated.
 Density matrix breaks symmetry, PCut= 1.00D-07
 Density matrix has no symmetry -- integrals replicated.
 Rare condition: small coef for last iteration:  0.000D+00
 Density matrix breaks symmetry, PCut= 1.00D-07
 Density matrix has no symmetry -- integrals replicated.
 Density matrix breaks symmetry, PCut= 1.00D-07
 Density matrix has no symmetry -- integrals replicated.
 Density matrix breaks symmetry, PCut= 1.00D-07
 Density matrix has no symmetry -- integrals replicated.
 Density matrix breaks symmetry, PCut= 1.00D-07
 Density matrix has no symmetry -- integrals replicated.
 Density matrix breaks symmetry, PCut= 1.00D-07
 Density matrix has no symmetry -- integrals replicated.
 Density matrix breaks symmetry, PCut= 1.00D-07
 Density matrix has no symmetry -- integrals replicated.
 Density matrix breaks symmetry, PCut= 1.00D-07
 Density matrix has no symmetry -- integrals replicated.
 Density matrix breaks symmetry, PCut= 1.00D-07
 Density matrix has no symmetry -- integrals replicated.
 Density matrix breaks symmetry, PCut= 1.00D-07
 Density matrix has no symmetry -- integrals replicated.
 SCF Done:  E(RHF) =  -398.247936983     A.U. after   21 cycles
             Convg  =    0.1492D-08             -V/T =  2.0015
 ExpMin= 1.22D-01 ExpMax= 1.11D+05 ExpMxC= 1.07D+03 IAcc=3 IRadAn=         5 AccDes= 0.00D+00
 HarFok:  IExCor=  205 AccDes= 0.00D+00 IRadAn=         5 IDoV=-2
 ScaDFX=  1.000000  1.000000  1.000000  1.000000
 Range of M.O.s used for correlation:     6    28
 NBasis=    28 NAE=     9 NBE=     9 NFC=     5 NFV=     0
 NROrb=     23 NOA=     4 NOB=     4 NVA=    19 NVB=    19
 Semi-Direct transformation.
 ModeAB=           2 MOrb=             4 LenV=      33383115
 LASXX=         7279 LTotXX=        7279 LenRXX=        7279
 LTotAB=        8536 MaxLAS=       40020 LenRXY=       40020
 NonZer=       42780 LenScr=     1048064 LnRSAI=           0
 LnScr1=           0 LExtra=           0 Total=      1095363
 MaxDsk=          -1 SrtSym=           F ITran=            3
 JobTyp=0 Pass  1:  I=   1 to   4.
 (rs|ai) integrals will be sorted in core.
 SymMOI:  orbitals are not symmetric.
 Spin components of T(2) and E(2):
     alpha-alpha T2 =       0.1470369479D-01 E2=     -0.1838536768D-01
     alpha-beta  T2 =       0.2737482479D+00 E2=     -0.2101625312D+00
     beta-beta   T2 =       0.1470369479D-01 E2=     -0.1838536768D-01
 ANorm=    0.1141558425D+01
 E2 =    -0.2469332666D+00 EUMP2 =    -0.39849487024990D+03
 R2 and R3 integrals will be kept in memory, NReq=     1009660.
 Iterations=  50 Convergence= 0.100D-06
 Iteration Nr.   1
 **********************
 DD1Dir will call FoFMem   1 times, MxPair=        20
 NAB=    10 NAA=     0 NBB=     0.
 E3=       -0.43182669D-01        EUMP3=      -0.39853805292D+03
 DE(CI)=     -0.22249157     E(CI)=       -398.47042855    
 NORM(A)=   0.11285237D+01
 Iteration Nr.   2
 **********************
 DD1Dir will call FoFMem   1 times, MxPair=        20
 NAB=    10 NAA=     0 NBB=     0.
 DE(CI)=     -0.24172104     E(CI)=       -398.48965802    
 NORM(A)=   0.11763290D+01
 Iteration Nr.   3
 **********************
 DD1Dir will call FoFMem   1 times, MxPair=        20
 NAB=    10 NAA=     0 NBB=     0.
 DE(CI)=     -0.25033400     E(CI)=       -398.49827098    
 NORM(A)=   0.11888921D+01
 Iteration Nr.   4
 **********************
 DD1Dir will call FoFMem   1 times, MxPair=        20
 NAB=    10 NAA=     0 NBB=     0.
 DE(CI)=     -0.25014208     E(CI)=       -398.49807906    
 NORM(A)=   0.11915990D+01
 Iteration Nr.   5
 **********************
 DD1Dir will call FoFMem   1 times, MxPair=        20
 NAB=    10 NAA=     0 NBB=     0.
 DE(CI)=     -0.25059891     E(CI)=       -398.49853590    
 NORM(A)=   0.12121372D+01
 Iteration Nr.   6
 **********************
 DD1Dir will call FoFMem   1 times, MxPair=        20
 NAB=    10 NAA=     0 NBB=     0.
 DE(CI)=     -0.25264300     E(CI)=       -398.50057998    
 NORM(A)=   0.12170511D+01
 Iteration Nr.   7
 **********************
 DD1Dir will call FoFMem   1 times, MxPair=        20
 NAB=    10 NAA=     0 NBB=     0.
 DE(CI)=     -0.25221848     E(CI)=       -398.50015547    
 NORM(A)=   0.12141255D+01
 Iteration Nr.   8
 **********************
 DD1Dir will call FoFMem   1 times, MxPair=        20
 NAB=    10 NAA=     0 NBB=     0.
 DE(CI)=     -0.25186150     E(CI)=       -398.49979848    
 NORM(A)=   0.12144828D+01
 Iteration Nr.   9
 **********************
 DD1Dir will call FoFMem   1 times, MxPair=        20
 NAB=    10 NAA=     0 NBB=     0.
 DE(CI)=     -0.25196255     E(CI)=       -398.49989953    
 NORM(A)=   0.12150660D+01
 Iteration Nr.  10
 **********************
 DD1Dir will call FoFMem   1 times, MxPair=        20
 NAB=    10 NAA=     0 NBB=     0.
 DE(CI)=     -0.25200982     E(CI)=       -398.49994681    
 NORM(A)=   0.12148846D+01
 Iteration Nr.  11
 **********************
 DD1Dir will call FoFMem   1 times, MxPair=        20
 NAB=    10 NAA=     0 NBB=     0.
 DE(CI)=     -0.25197793     E(CI)=       -398.49991491    
 NORM(A)=   0.12147161D+01
 Iteration Nr.  12
 **********************
 DD1Dir will call FoFMem   1 times, MxPair=        20
 NAB=    10 NAA=     0 NBB=     0.
 DE(CI)=     -0.25196614     E(CI)=       -398.49990312    
 NORM(A)=   0.12148163D+01
 Iteration Nr.  13
 **********************
 DD1Dir will call FoFMem   1 times, MxPair=        20
 NAB=    10 NAA=     0 NBB=     0.
 DE(CI)=     -0.25198156     E(CI)=       -398.49991855    
 NORM(A)=   0.12148854D+01
 Iteration Nr.  14
 **********************
 DD1Dir will call FoFMem   1 times, MxPair=        20
 NAB=    10 NAA=     0 NBB=     0.
 DE(CI)=     -0.25198697     E(CI)=       -398.49992395    
 NORM(A)=   0.12148184D+01
 Iteration Nr.  15
 **********************
 DD1Dir will call FoFMem   1 times, MxPair=        20
 NAB=    10 NAA=     0 NBB=     0.
 DE(CI)=     -0.25197751     E(CI)=       -398.49991449    
 NORM(A)=   0.12148130D+01
 Iteration Nr.  16
 **********************
 DD1Dir will call FoFMem   1 times, MxPair=        20
 NAB=    10 NAA=     0 NBB=     0.
 DE(CI)=     -0.25197914     E(CI)=       -398.49991613    
 NORM(A)=   0.12147986D+01
 Iteration Nr.  17
 **********************
 DD1Dir will call FoFMem   1 times, MxPair=        20
 NAB=    10 NAA=     0 NBB=     0.
 DE(CI)=     -0.25197702     E(CI)=       -398.49991401    
 NORM(A)=   0.12147962D+01
 Iteration Nr.  18
 **********************
 DD1Dir will call FoFMem   1 times, MxPair=        20
 NAB=    10 NAA=     0 NBB=     0.
 DE(CI)=     -0.25197719     E(CI)=       -398.49991418    
 NORM(A)=   0.12148053D+01
 Iteration Nr.  19
 **********************
 DD1Dir will call FoFMem   1 times, MxPair=        20
 NAB=    10 NAA=     0 NBB=     0.
 DE(CI)=     -0.25197824     E(CI)=       -398.49991522    
 NORM(A)=   0.12148373D+01
 Iteration Nr.  20
 **********************
 DD1Dir will call FoFMem   1 times, MxPair=        20
 NAB=    10 NAA=     0 NBB=     0.
 DE(CI)=     -0.25198195     E(CI)=       -398.49991893    
 NORM(A)=   0.12148349D+01
 Iteration Nr.  21
 **********************
 DD1Dir will call FoFMem   1 times, MxPair=        20
 NAB=    10 NAA=     0 NBB=     0.
 DE(CI)=     -0.25198085     E(CI)=       -398.49991784    
 NORM(A)=   0.12148415D+01
 Iteration Nr.  22
 **********************
 DD1Dir will call FoFMem   1 times, MxPair=        20
 NAB=    10 NAA=     0 NBB=     0.
 DE(CI)=     -0.25198189     E(CI)=       -398.49991887    
 NORM(A)=   0.12148371D+01
 Iteration Nr.  23
 **********************
 DD1Dir will call FoFMem   1 times, MxPair=        20
 NAB=    10 NAA=     0 NBB=     0.
 DE(CI)=     -0.25198113     E(CI)=       -398.49991811    
 NORM(A)=   0.12148401D+01
 Iteration Nr.  24
 **********************
 DD1Dir will call FoFMem   1 times, MxPair=        20
 NAB=    10 NAA=     0 NBB=     0.
 DE(CI)=     -0.25198164     E(CI)=       -398.49991862    
 NORM(A)=   0.12148534D+01
 Iteration Nr.  25
 **********************
 DD1Dir will call FoFMem   1 times, MxPair=        20
 NAB=    10 NAA=     0 NBB=     0.
 DE(CI)=     -0.25198315     E(CI)=       -398.49992013    
 NORM(A)=   0.12148309D+01
 Iteration Nr.  26
 **********************
 DD1Dir will call FoFMem   1 times, MxPair=        20
 NAB=    10 NAA=     0 NBB=     0.
 DE(CI)=     -0.25198010     E(CI)=       -398.49991709    
 NORM(A)=   0.12148268D+01
 Iteration Nr.  27
 **********************
 DD1Dir will call FoFMem   1 times, MxPair=        20
 NAB=    10 NAA=     0 NBB=     0.
 DE(CI)=     -0.25198032     E(CI)=       -398.49991731    
 NORM(A)=   0.12148277D+01
 Iteration Nr.  28
 **********************
 DD1Dir will call FoFMem   1 times, MxPair=        20
 NAB=    10 NAA=     0 NBB=     0.
 DE(CI)=     -0.25198037     E(CI)=       -398.49991736    
 NORM(A)=   0.12148278D+01
 ***************************************************************
 Dominant configurations:
 ***********************
 Spin Case        I    J    A    B          Value
   ABAB           8    8   10   10      -0.327108D+00
   ABAB           8    9   10   11      -0.169138D+00
   ABAB           8    9   11   10      -0.241173D+00
   ABAB           9    8   10   11      -0.241173D+00
   ABAB           9    8   11   10      -0.169138D+00
   ABAB           9    9   11   11      -0.326653D+00
 Largest amplitude= 3.27D-01

 **********************************************************************

            Population analysis using the SCF density.

 **********************************************************************

 Orbital symmetries:
       Occupied  (A1) (A1) (A1) (B2) (B1) (A1) (B1) (B2) (A1)
       Virtual   (B2) (A1) (A1) (B2) (A1) (B1) (B2) (A1) (A1) (B1)
                 (A2) (A1) (B2) (B2) (A1) (A2) (B1) (B2) (A1)
 The electronic state is 1-A1.
 Alpha  occ. eigenvalues --  -92.05720  -9.04392  -6.72368  -6.72348  -6.71967
 Alpha  occ. eigenvalues --   -0.88854  -0.40201  -0.35055  -0.34720
 Alpha virt. eigenvalues --   -0.10420  -0.10226   0.57686   0.62543   0.67280
 Alpha virt. eigenvalues --    0.67917   0.71295   0.74779   0.80494   0.81194
 Alpha virt. eigenvalues --    0.81256   0.82708   0.83295   1.45225   1.45238
 Alpha virt. eigenvalues --    1.45242   1.45417   1.48596   1.50025
          Condensed to atoms (all electrons):
              1          2          3
     1  S   15.840372   0.114788   0.114788
     2  H    0.114788   0.849991   0.000247
     3  H    0.114788   0.000247   0.849991
 Mulliken atomic charges:
              1
     1  S   -0.069949
     2  H    0.034974
     3  H    0.034974
 Sum of Mulliken atomic charges =   0.00000
 Mulliken charges with hydrogens summed into heavy atoms:
              1
     1  S    0.000000
 Sum of Mulliken charges with hydrogens summed into heavy atoms =   0.00000
 Electronic spatial extent (au):  <R**2>=             93.3980
 Charge=              0.0000 electrons
 Dipole moment (field-independent basis, Debye):
    X=              0.0000    Y=              0.0000    Z=             -0.7486  Tot=              0.7486
 Quadrupole moment (field-independent basis, Debye-Ang):
   XX=            -18.4199   YY=            -12.4535   ZZ=            -12.9187
   XY=              0.0000   XZ=              0.0000   YZ=              0.0000
 Traceless Quadrupole moment (field-independent basis, Debye-Ang):
   XX=             -3.8225   YY=              2.1439   ZZ=              1.6787
   XY=              0.0000   XZ=              0.0000   YZ=              0.0000
 Octapole moment (field-independent basis, Debye-Ang**2):
  XXX=              0.0000  YYY=              0.0000  ZZZ=              2.6337  XYY=              0.0000
  XXY=              0.0000  XXZ=              2.6626  XZZ=              0.0000  YZZ=              0.0000
  YYZ=             -6.0261  XYZ=              0.0000
 Hexadecapole moment (field-independent basis, Debye-Ang**3):
 XXXX=            -25.3563 YYYY=            -80.7562 ZZZZ=            -71.5888 XXXY=              0.0000
 XXXZ=              0.0000 YYYX=              0.0000 YYYZ=              0.0000 ZZZX=              0.0000
 ZZZY=              0.0000 XXYY=            -22.2045 XXZZ=            -18.9132 YYZZ=            -11.8516
 XXYZ=              0.0000 YYXZ=              0.0000 ZZXY=              0.0000
 N-N= 5.767050545213D+00 E-N=-9.591767739934D+02  KE= 3.976592828438D+02
 Symmetry A1   KE= 3.217607775589D+02
 Symmetry A2   KE= 8.405220844851D-22
 Symmetry B1   KE= 3.883676132802D+01
 Symmetry B2   KE= 3.706174395688D+01
 Variable Step   Value    
 -------- ---- -----------
     1       1    5.480206
 ---------------------------------------------------------------------------------------------------
                            Z-MATRIX (ANGSTROMS AND DEGREES)
   CD    Cent   Atom    N1       Length/X        N2       Alpha/Y        N3        Beta/Z          J
 ---------------------------------------------------------------------------------------------------
      1      1  S 
      2      2  H        1   2.900000(     1)
      3      3  H        1   2.900000(     2)      2   92.110(     3)
 ---------------------------------------------------------------------------------------------------
                         Z-Matrix orientation:                         
 ---------------------------------------------------------------------
 Center     Atomic      Atomic             Coordinates (Angstroms)
 Number     Number       Type             X           Y           Z
 ---------------------------------------------------------------------
      1         16           0        0.000000    0.000000    0.000000
      2          1           0        0.000000    0.000000    2.900000
      3          1           0        2.898034    0.000000   -0.106773
 ---------------------------------------------------------------------
                    Distance matrix (angstroms):
                    1          2          3
     1  S    0.000000
     2  H    2.900000   0.000000
     3  H    2.900000   4.176036   0.000000
 Stoichiometry    H2S
 Framework group  C2V[C2(S),SGV(H2)]
 Deg. of freedom     2
 Full point group                 C2V     NOp   4
 Largest Abelian subgroup         C2V     NOp   4
 Largest concise Abelian subgroup C2      NOp   2
                         Standard orientation:                         
 ---------------------------------------------------------------------
 Center     Atomic      Atomic             Coordinates (Angstroms)
 Number     Number       Type             X           Y           Z
 ---------------------------------------------------------------------
      1         16           0        0.000000    0.000000    0.223612
      2          1           0        0.000000    2.088018   -1.788894
      3          1           0        0.000000   -2.088018   -1.788894
 ---------------------------------------------------------------------
 Rotational constants (GHZ):     65.8080514     57.5086903     30.6895462
 Standard basis: CC-pVDZ (5D, 7F)
 There are    13 symmetry adapted basis functions of A1  symmetry.
 There are     2 symmetry adapted basis functions of A2  symmetry.
 There are     5 symmetry adapted basis functions of B1  symmetry.
 There are     8 symmetry adapted basis functions of B2  symmetry.
 Integral buffers will be    262144 words long.
 Raffenetti 1 integral format.
 Two-electron integral symmetry is turned on.
    28 basis functions,    85 primitive gaussians,    29 cartesian basis functions
     9 alpha electrons        9 beta electrons
       nuclear repulsion energy         5.9659143571 Hartrees.
 NAtoms=    3 NActive=    3 NUniq=    2 SFac= 2.25D+00 NAtFMM=   50 NAOKFM=F Big=F
 One-electron integrals computed using PRISM.
 NBasis=    28 RedAO= T  NBF=    13     2     5     8
 NBsUse=    28 1.00D-06 NBFU=    13     2     5     8
 Initial guess read from the read-write file.
 B after Tr=     0.000000    0.000000    0.000000
         Rot=    1.000000    0.000000    0.000000    0.000000 Ang=   0.00 deg.
 Initial guess orbital symmetries:
       Occupied  (A1) (A1) (A1) (B2) (B1) (A1) (B1) (B2) (A1)
       Virtual   (B2) (A1) (A1) (B2) (A1) (B1) (B2) (A1) (A1) (B1)
                 (A2) (A1) (B2) (B2) (A1) (A2) (B1) (B2) (A1)
 Harris functional with IExCor=  205 diagonalized for initial guess.
 ExpMin= 1.22D-01 ExpMax= 1.11D+05 ExpMxC= 1.07D+03 IAcc=2 IRadAn=         0 AccDes= 0.00D+00
 HarFok:  IExCor=  205 AccDes= 0.00D+00 IRadAn=         0 IDoV= 1
 ScaDFX=  1.000000  1.000000  1.000000  1.000000
 FoFCou: FMM=F IPFlag=           0 FMFlag=      100000 FMFlg1=           0
         NFxFlg=           0 DoJE=T BraDBF=F KetDBF=T FulRan=T
         Omega=  0.000000  0.000000  1.000000  0.000000  0.000000 ICntrl=     500 IOpCl=  0
         NMat0=    1 NMatS0=    1 NMatT0=    0 NMatD0=    1 NMtDS0=    0 NMtDT0=    0
         I1Cent=           4 NGrid=           0.
 Petite list used in FoFCou.
 Requested convergence on RMS density matrix=1.00D-08 within 128 cycles.
 Requested convergence on MAX density matrix=1.00D-06.
 Requested convergence on             energy=1.00D-06.
 No special actions if energy rises.
 Keep R1 ints in memory in canonical form, NReq=935895.
 SCF Done:  E(RHF) =  -398.266615552     A.U. after   10 cycles
             Convg  =    0.6069D-08             -V/T =  2.0016
 ExpMin= 1.22D-01 ExpMax= 1.11D+05 ExpMxC= 1.07D+03 IAcc=3 IRadAn=         5 AccDes= 0.00D+00
 HarFok:  IExCor=  205 AccDes= 0.00D+00 IRadAn=         5 IDoV=-2
 ScaDFX=  1.000000  1.000000  1.000000  1.000000
 Range of M.O.s used for correlation:     6    28
 NBasis=    28 NAE=     9 NBE=     9 NFC=     5 NFV=     0
 NROrb=     23 NOA=     4 NOB=     4 NVA=    19 NVB=    19
 Semi-Direct transformation.
 ModeAB=           4 MOrb=             4 LenV=      33382835
 LASXX=         1917 LTotXX=        1917 LenRXX=        4243
 LTotAB=        2326 MaxLAS=       31740 LenRXY=           0
 NonZer=        6160 LenScr=     1048064 LnRSAI=       31740
 LnScr1=     1048064 LExtra=           0 Total=      2132111
 MaxDsk=          -1 SrtSym=           T ITran=            3
 JobTyp=0 Pass  1:  I=   1 to   4.
 (rs|ai) integrals will be sorted in core.
 Spin components of T(2) and E(2):
     alpha-alpha T2 =       0.1343229810D-01 E2=     -0.1788150948D-01
     alpha-beta  T2 =       0.2420299589D+00 E2=     -0.1997544698D+00
     beta-beta   T2 =       0.1343229810D-01 E2=     -0.1788150948D-01
 ANorm=    0.1126452198D+01
 E2 =    -0.2355174887D+00 EUMP2 =    -0.39850213304071D+03
 R2 and R3 integrals will be kept in memory, NReq=     1009660.
 Iterations=  50 Convergence= 0.100D-06
 Iteration Nr.   1
 **********************
 DD1Dir will call FoFMem   1 times, MxPair=        20
 NAB=    10 NAA=     0 NBB=     0.
 E3=       -0.41557692D-01        EUMP3=      -0.39854369073D+03
 DE(CI)=     -0.21793671     E(CI)=       -398.48455226    
 NORM(A)=   0.11201830D+01
 Iteration Nr.   2
 **********************
 DD1Dir will call FoFMem   1 times, MxPair=        20
 NAB=    10 NAA=     0 NBB=     0.
 DE(CI)=     -0.23459417     E(CI)=       -398.50120972    
 NORM(A)=   0.11637506D+01
 Iteration Nr.   3
 **********************
 DD1Dir will call FoFMem   1 times, MxPair=        20
 NAB=    10 NAA=     0 NBB=     0.
 DE(CI)=     -0.24291729     E(CI)=       -398.50953285    
 NORM(A)=   0.11763645D+01
 Iteration Nr.   4
 **********************
 DD1Dir will call FoFMem   1 times, MxPair=        20
 NAB=    10 NAA=     0 NBB=     0.
 DE(CI)=     -0.24320982     E(CI)=       -398.50982537    
 NORM(A)=   0.11777901D+01
 Iteration Nr.   5
 **********************
 DD1Dir will call FoFMem   1 times, MxPair=        20
 NAB=    10 NAA=     0 NBB=     0.
 DE(CI)=     -0.24332917     E(CI)=       -398.50994472    
 NORM(A)=   0.11891404D+01
 Iteration Nr.   6
 **********************
 DD1Dir will call FoFMem   1 times, MxPair=        20
 NAB=    10 NAA=     0 NBB=     0.
 DE(CI)=     -0.24452196     E(CI)=       -398.51113751    
 NORM(A)=   0.11936604D+01
 Iteration Nr.   7
 **********************
 DD1Dir will call FoFMem   1 times, MxPair=        20
 NAB=    10 NAA=     0 NBB=     0.
 DE(CI)=     -0.24456480     E(CI)=       -398.51118036    
 NORM(A)=   0.11927555D+01
 Iteration Nr.   8
 **********************
 DD1Dir will call FoFMem   1 times, MxPair=        20
 NAB=    10 NAA=     0 NBB=     0.
 DE(CI)=     -0.24436132     E(CI)=       -398.51097687    
 NORM(A)=   0.11923101D+01
 Iteration Nr.   9
 **********************
 DD1Dir will call FoFMem   1 times, MxPair=        20
 NAB=    10 NAA=     0 NBB=     0.
 DE(CI)=     -0.24433256     E(CI)=       -398.51094811    
 NORM(A)=   0.11924767D+01
 Iteration Nr.  10
 **********************
 DD1Dir will call FoFMem   1 times, MxPair=        20
 NAB=    10 NAA=     0 NBB=     0.
 DE(CI)=     -0.24436146     E(CI)=       -398.51097702    
 NORM(A)=   0.11925410D+01
 Iteration Nr.  11
 **********************
 DD1Dir will call FoFMem   1 times, MxPair=        20
 NAB=    10 NAA=     0 NBB=     0.
 DE(CI)=     -0.24436448     E(CI)=       -398.51098003    
 NORM(A)=   0.11924838D+01
 Iteration Nr.  12
 **********************
 DD1Dir will call FoFMem   1 times, MxPair=        20
 NAB=    10 NAA=     0 NBB=     0.
 DE(CI)=     -0.24435619     E(CI)=       -398.51097174    
 NORM(A)=   0.11924860D+01
 Iteration Nr.  13
 **********************
 DD1Dir will call FoFMem   1 times, MxPair=        20
 NAB=    10 NAA=     0 NBB=     0.
 DE(CI)=     -0.24435875     E(CI)=       -398.51097431    
 NORM(A)=   0.11925074D+01
 Iteration Nr.  14
 **********************
 DD1Dir will call FoFMem   1 times, MxPair=        20
 NAB=    10 NAA=     0 NBB=     0.
 DE(CI)=     -0.24436143     E(CI)=       -398.51097698    
 NORM(A)=   0.11925042D+01
 Iteration Nr.  15
 **********************
 DD1Dir will call FoFMem   1 times, MxPair=        20
 NAB=    10 NAA=     0 NBB=     0.
 DE(CI)=     -0.24436039     E(CI)=       -398.51097594    
 NORM(A)=   0.11925173D+01
 Iteration Nr.  16
 **********************
 DD1Dir will call FoFMem   1 times, MxPair=        20
 NAB=    10 NAA=     0 NBB=     0.
 DE(CI)=     -0.24436247     E(CI)=       -398.51097802    
 NORM(A)=   0.11924948D+01
 Iteration Nr.  17
 **********************
 DD1Dir will call FoFMem   1 times, MxPair=        20
 NAB=    10 NAA=     0 NBB=     0.
 DE(CI)=     -0.24435886     E(CI)=       -398.51097442    
 NORM(A)=   0.11924943D+01
 Iteration Nr.  18
 **********************
 DD1Dir will call FoFMem   1 times, MxPair=        20
 NAB=    10 NAA=     0 NBB=     0.
 DE(CI)=     -0.24435960     E(CI)=       -398.51097515    
 NORM(A)=   0.11924944D+01
 Iteration Nr.  19
 **********************
 DD1Dir will call FoFMem   1 times, MxPair=        20
 NAB=    10 NAA=     0 NBB=     0.
 DE(CI)=     -0.24435945     E(CI)=       -398.51097500    
 NORM(A)=   0.11924959D+01
 Iteration Nr.  20
 **********************
 DD1Dir will call FoFMem   1 times, MxPair=        20
 NAB=    10 NAA=     0 NBB=     0.
 DE(CI)=     -0.24435969     E(CI)=       -398.51097525    
 NORM(A)=   0.11924972D+01
 Iteration Nr.  21
 **********************
 DD1Dir will call FoFMem   1 times, MxPair=        20
 NAB=    10 NAA=     0 NBB=     0.
 DE(CI)=     -0.24435981     E(CI)=       -398.51097537    
 NORM(A)=   0.11924991D+01
 Iteration Nr.  22
 **********************
 DD1Dir will call FoFMem   1 times, MxPair=        20
 NAB=    10 NAA=     0 NBB=     0.
 DE(CI)=     -0.24436005     E(CI)=       -398.51097560    
 NORM(A)=   0.11924992D+01
 Iteration Nr.  23
 **********************
 DD1Dir will call FoFMem   1 times, MxPair=        20
 NAB=    10 NAA=     0 NBB=     0.
 DE(CI)=     -0.24436004     E(CI)=       -398.51097559    
 NORM(A)=   0.11924992D+01
 ***************************************************************
 Dominant configurations:
 ***********************
 Spin Case        I    J    A    B          Value
   ABAB           9    9   11   11      -0.297387D+00
   ABAB           9    9   10   10      -0.104892D+00
   ABAB           8    8   10   10      -0.298509D+00
   ABAB           9    8   11   10      -0.167074D+00
   ABAB           9    8   10   11      -0.223631D+00
   ABAB           8    9   11   10      -0.223631D+00
   ABAB           8    9   10   11      -0.167074D+00
 Largest amplitude= 2.99D-01
 Variable Step   Value    
 -------- ---- -----------
     1       2    5.291233
 ---------------------------------------------------------------------------------------------------
                            Z-MATRIX (ANGSTROMS AND DEGREES)
   CD    Cent   Atom    N1       Length/X        N2       Alpha/Y        N3        Beta/Z          J
 ---------------------------------------------------------------------------------------------------
      1      1  S 
      2      2  H        1   2.800000(     1)
      3      3  H        1   2.800000(     2)      2   92.110(     3)
 ---------------------------------------------------------------------------------------------------
                         Z-Matrix orientation:                         
 ---------------------------------------------------------------------
 Center     Atomic      Atomic             Coordinates (Angstroms)
 Number     Number       Type             X           Y           Z
 ---------------------------------------------------------------------
      1         16           0        0.000000    0.000000    0.000000
      2          1           0        0.000000    0.000000    2.800000
      3          1           0        2.798102    0.000000   -0.103091
 ---------------------------------------------------------------------
                    Distance matrix (angstroms):
                    1          2          3
     1  S    0.000000
     2  H    2.800000   0.000000
     3  H    2.800000   4.032035   0.000000
 Stoichiometry    H2S
 Framework group  C2V[C2(S),SGV(H2)]
 Deg. of freedom     2
 Full point group                 C2V     NOp   4
 Largest Abelian subgroup         C2V     NOp   4
 Largest concise Abelian subgroup C2      NOp   2
                         Standard orientation:                         
 ---------------------------------------------------------------------
 Center     Atomic      Atomic             Coordinates (Angstroms)
 Number     Number       Type             X           Y           Z
 ---------------------------------------------------------------------
      1         16           0        0.000000    0.000000    0.215901
      2          1           0        0.000000    2.016018   -1.727208
      3          1           0        0.000000   -2.016018   -1.727208
 ---------------------------------------------------------------------
 Rotational constants (GHZ):     70.5925653     61.6898068     32.9208015
 Standard basis: CC-pVDZ (5D, 7F)
 There are    13 symmetry adapted basis functions of A1  symmetry.
 There are     2 symmetry adapted basis functions of A2  symmetry.
 There are     5 symmetry adapted basis functions of B1  symmetry.
 There are     8 symmetry adapted basis functions of B2  symmetry.
 Integral buffers will be    262144 words long.
 Raffenetti 1 integral format.
 Two-electron integral symmetry is turned on.
    28 basis functions,    85 primitive gaussians,    29 cartesian basis functions
     9 alpha electrons        9 beta electrons
       nuclear repulsion energy         6.1789827270 Hartrees.
 NAtoms=    3 NActive=    3 NUniq=    2 SFac= 2.25D+00 NAtFMM=   50 NAOKFM=F Big=F
 One-electron integrals computed using PRISM.
 NBasis=    28 RedAO= T  NBF=    13     2     5     8
 NBsUse=    28 1.00D-06 NBFU=    13     2     5     8
 Initial guess read from the read-write file.
 B after Tr=     0.000000    0.000000    0.000000
         Rot=    1.000000    0.000000    0.000000    0.000000 Ang=   0.00 deg.
 Initial guess orbital symmetries:
       Occupied  (A1) (A1) (A1) (B2) (B1) (A1) (B1) (B2) (A1)
       Virtual   (B2) (A1) (A1) (B2) (A1) (B1) (B2) (A1) (A1) (B1)
                 (A2) (A1) (B2) (B2) (A2) (A1) (B1) (B2) (A1)
 Harris functional with IExCor=  205 diagonalized for initial guess.
 ExpMin= 1.22D-01 ExpMax= 1.11D+05 ExpMxC= 1.07D+03 IAcc=2 IRadAn=         0 AccDes= 0.00D+00
 HarFok:  IExCor=  205 AccDes= 0.00D+00 IRadAn=         0 IDoV= 1
 ScaDFX=  1.000000  1.000000  1.000000  1.000000
 FoFCou: FMM=F IPFlag=           0 FMFlag=      100000 FMFlg1=           0
         NFxFlg=           0 DoJE=T BraDBF=F KetDBF=T FulRan=T
         Omega=  0.000000  0.000000  1.000000  0.000000  0.000000 ICntrl=     500 IOpCl=  0
         NMat0=    1 NMatS0=    1 NMatT0=    0 NMatD0=    1 NMtDS0=    0 NMtDT0=    0
         I1Cent=           4 NGrid=           0.
 Petite list used in FoFCou.
 Requested convergence on RMS density matrix=1.00D-08 within 128 cycles.
 Requested convergence on MAX density matrix=1.00D-06.
 Requested convergence on             energy=1.00D-06.
 No special actions if energy rises.
 Keep R1 ints in memory in canonical form, NReq=935895.
 SCF Done:  E(RHF) =  -398.286745765     A.U. after   10 cycles
             Convg  =    0.3303D-08             -V/T =  2.0016
 ExpMin= 1.22D-01 ExpMax= 1.11D+05 ExpMxC= 1.07D+03 IAcc=3 IRadAn=         5 AccDes= 0.00D+00
 HarFok:  IExCor=  205 AccDes= 0.00D+00 IRadAn=         5 IDoV=-2
 ScaDFX=  1.000000  1.000000  1.000000  1.000000
 Range of M.O.s used for correlation:     6    28
 NBasis=    28 NAE=     9 NBE=     9 NFC=     5 NFV=     0
 NROrb=     23 NOA=     4 NOB=     4 NVA=    19 NVB=    19
 Semi-Direct transformation.
 ModeAB=           4 MOrb=             4 LenV=      33382695
 LASXX=         1917 LTotXX=        1917 LenRXX=        4243
 LTotAB=        2326 MaxLAS=       31740 LenRXY=           0
 NonZer=        6160 LenScr=     1048064 LnRSAI=       31740
 LnScr1=     1048064 LExtra=           0 Total=      2132111
 MaxDsk=          -1 SrtSym=           T ITran=            3
 JobTyp=0 Pass  1:  I=   1 to   4.
 (rs|ai) integrals will be sorted in core.
 Spin components of T(2) and E(2):
     alpha-alpha T2 =       0.1230828994D-01 E2=     -0.1741178120D-01
     alpha-beta  T2 =       0.2136106933D+00 E2=     -0.1898962916D+00
     beta-beta   T2 =       0.1230828994D-01 E2=     -0.1741178120D-01
 ANorm=    0.1112756610D+01
 E2 =    -0.2247198540D+00 EUMP2 =    -0.39851146561914D+03
 R2 and R3 integrals will be kept in memory, NReq=     1009660.
 Iterations=  50 Convergence= 0.100D-06
 Iteration Nr.   1
 **********************
 DD1Dir will call FoFMem   1 times, MxPair=        20
 NAB=    10 NAA=     0 NBB=     0.
 E3=       -0.39782755D-01        EUMP3=      -0.39855124837D+03
 DE(CI)=     -0.21300374     E(CI)=       -398.49974951    
 NORM(A)=   0.11119618D+01
 Iteration Nr.   2
 **********************
 DD1Dir will call FoFMem   1 times, MxPair=        20
 NAB=    10 NAA=     0 NBB=     0.
 DE(CI)=     -0.22747509     E(CI)=       -398.51422085    
 NORM(A)=   0.11511328D+01
 Iteration Nr.   3
 **********************
 DD1Dir will call FoFMem   1 times, MxPair=        20
 NAB=    10 NAA=     0 NBB=     0.
 DE(CI)=     -0.23539934     E(CI)=       -398.52214511    
 NORM(A)=   0.11631053D+01
 Iteration Nr.   4
 **********************
 DD1Dir will call FoFMem   1 times, MxPair=        20
 NAB=    10 NAA=     0 NBB=     0.
 DE(CI)=     -0.23599717     E(CI)=       -398.52274293    
 NORM(A)=   0.11635220D+01
 Iteration Nr.   5
 **********************
 DD1Dir will call FoFMem   1 times, MxPair=        20
 NAB=    10 NAA=     0 NBB=     0.
 DE(CI)=     -0.23587754     E(CI)=       -398.52262330    
 NORM(A)=   0.11695217D+01
 Iteration Nr.   6
 **********************
 DD1Dir will call FoFMem   1 times, MxPair=        20
 NAB=    10 NAA=     0 NBB=     0.
 DE(CI)=     -0.23655707     E(CI)=       -398.52330283    
 NORM(A)=   0.11731159D+01
 Iteration Nr.   7
 **********************
 DD1Dir will call FoFMem   1 times, MxPair=        20
 NAB=    10 NAA=     0 NBB=     0.
 DE(CI)=     -0.23678581     E(CI)=       -398.52353157    
 NORM(A)=   0.11730103D+01
 Iteration Nr.   8
 **********************
 DD1Dir will call FoFMem   1 times, MxPair=        20
 NAB=    10 NAA=     0 NBB=     0.
 DE(CI)=     -0.23667920     E(CI)=       -398.52342496    
 NORM(A)=   0.11724618D+01
 Iteration Nr.   9
 **********************
 DD1Dir will call FoFMem   1 times, MxPair=        20
 NAB=    10 NAA=     0 NBB=     0.
 DE(CI)=     -0.23660940     E(CI)=       -398.52335517    
 NORM(A)=   0.11725016D+01
 Iteration Nr.  10
 **********************
 DD1Dir will call FoFMem   1 times, MxPair=        20
 NAB=    10 NAA=     0 NBB=     0.
 DE(CI)=     -0.23662920     E(CI)=       -398.52337497    
 NORM(A)=   0.11725960D+01
 Iteration Nr.  11
 **********************
 DD1Dir will call FoFMem   1 times, MxPair=        20
 NAB=    10 NAA=     0 NBB=     0.
 DE(CI)=     -0.23664012     E(CI)=       -398.52338588    
 NORM(A)=   0.11725401D+01
 Iteration Nr.  12
 **********************
 DD1Dir will call FoFMem   1 times, MxPair=        20
 NAB=    10 NAA=     0 NBB=     0.
 DE(CI)=     -0.23662950     E(CI)=       -398.52337526    
 NORM(A)=   0.11725459D+01
 Iteration Nr.  13
 **********************
 DD1Dir will call FoFMem   1 times, MxPair=        20
 NAB=    10 NAA=     0 NBB=     0.
 DE(CI)=     -0.23663265     E(CI)=       -398.52337842    
 NORM(A)=   0.11723056D+01
 Iteration Nr.  14
 **********************
 DD1Dir will call FoFMem   1 times, MxPair=        20
 NAB=    10 NAA=     0 NBB=     0.
 DE(CI)=     -0.23659255     E(CI)=       -398.52333831    
 NORM(A)=   0.11725787D+01
 Iteration Nr.  15
 **********************
 DD1Dir will call FoFMem   1 times, MxPair=        20
 NAB=    10 NAA=     0 NBB=     0.
 DE(CI)=     -0.23664536     E(CI)=       -398.52339113    
 NORM(A)=   0.11725881D+01
 Iteration Nr.  16
 **********************
 DD1Dir will call FoFMem   1 times, MxPair=        20
 NAB=    10 NAA=     0 NBB=     0.
 DE(CI)=     -0.23663629     E(CI)=       -398.52338206    
 NORM(A)=   0.11725725D+01
 Iteration Nr.  17
 **********************
 DD1Dir will call FoFMem   1 times, MxPair=        20
 NAB=    10 NAA=     0 NBB=     0.
 DE(CI)=     -0.23663567     E(CI)=       -398.52338143    
 NORM(A)=   0.11725587D+01
 Iteration Nr.  18
 **********************
 DD1Dir will call FoFMem   1 times, MxPair=        20
 NAB=    10 NAA=     0 NBB=     0.
 DE(CI)=     -0.23663348     E(CI)=       -398.52337925    
 NORM(A)=   0.11725621D+01
 Iteration Nr.  19
 **********************
 DD1Dir will call FoFMem   1 times, MxPair=        20
 NAB=    10 NAA=     0 NBB=     0.
 DE(CI)=     -0.23663447     E(CI)=       -398.52338023    
 NORM(A)=   0.11725605D+01
 Iteration Nr.  20
 **********************
 DD1Dir will call FoFMem   1 times, MxPair=        20
 NAB=    10 NAA=     0 NBB=     0.
 DE(CI)=     -0.23663400     E(CI)=       -398.52337976    
 NORM(A)=   0.11725614D+01
 Iteration Nr.  21
 **********************
 DD1Dir will call FoFMem   1 times, MxPair=        20
 NAB=    10 NAA=     0 NBB=     0.
 DE(CI)=     -0.23663425     E(CI)=       -398.52338001    
 NORM(A)=   0.11725600D+01
 Iteration Nr.  22
 **********************
 DD1Dir will call FoFMem   1 times, MxPair=        20
 NAB=    10 NAA=     0 NBB=     0.
 DE(CI)=     -0.23663396     E(CI)=       -398.52337973    
 NORM(A)=   0.11725600D+01
 Iteration Nr.  23
 **********************
 DD1Dir will call FoFMem   1 times, MxPair=        20
 NAB=    10 NAA=     0 NBB=     0.
 DE(CI)=     -0.23663402     E(CI)=       -398.52337978    
 NORM(A)=   0.11725611D+01
 ***************************************************************
 Dominant configurations:
 ***********************
 Spin Case        I    J    A    B          Value
   ABAB           9    9   10   10      -0.270357D+00
   ABAB           9    9   11   11      -0.109294D+00
   ABAB           8    8   10   10      -0.105452D+00
   ABAB           8    8   11   11      -0.272066D+00
   ABAB           9    8   10   11      -0.163340D+00
   ABAB           9    8   11   10      -0.206458D+00
   ABAB           8    9   10   11      -0.206458D+00
   ABAB           8    9   11   10      -0.163340D+00
 Largest amplitude= 2.72D-01
 Variable Step   Value    
 -------- ---- -----------
     1       3    5.102261
 ---------------------------------------------------------------------------------------------------
                            Z-MATRIX (ANGSTROMS AND DEGREES)
   CD    Cent   Atom    N1       Length/X        N2       Alpha/Y        N3        Beta/Z          J
 ---------------------------------------------------------------------------------------------------
      1      1  S 
      2      2  H        1   2.700000(     1)
      3      3  H        1   2.700000(     2)      2   92.110(     3)
 ---------------------------------------------------------------------------------------------------
                         Z-Matrix orientation:                         
 ---------------------------------------------------------------------
 Center     Atomic      Atomic             Coordinates (Angstroms)
 Number     Number       Type             X           Y           Z
 ---------------------------------------------------------------------
      1         16           0        0.000000    0.000000    0.000000
      2          1           0        0.000000    0.000000    2.700000
      3          1           0        2.698169    0.000000   -0.099409
 ---------------------------------------------------------------------
                    Distance matrix (angstroms):
                    1          2          3
     1  S    0.000000
     2  H    2.700000   0.000000
     3  H    2.700000   3.888034   0.000000
 Stoichiometry    H2S
 Framework group  C2V[C2(S),SGV(H2)]
 Deg. of freedom     2
 Full point group                 C2V     NOp   4
 Largest Abelian subgroup         C2V     NOp   4
 Largest concise Abelian subgroup C2      NOp   2
                         Standard orientation:                         
 ---------------------------------------------------------------------
 Center     Atomic      Atomic             Coordinates (Angstroms)
 Number     Number       Type             X           Y           Z
 ---------------------------------------------------------------------
      1         16           0        0.000000    0.000000    0.208190
      2          1           0        0.000000    1.944017   -1.665522
      3          1           0        0.000000   -1.944017   -1.665522
 ---------------------------------------------------------------------
 Rotational constants (GHZ):     75.9184790     66.3440446     35.4045382
 Standard basis: CC-pVDZ (5D, 7F)
 There are    13 symmetry adapted basis functions of A1  symmetry.
 There are     2 symmetry adapted basis functions of A2  symmetry.
 There are     5 symmetry adapted basis functions of B1  symmetry.
 There are     8 symmetry adapted basis functions of B2  symmetry.
 Integral buffers will be    262144 words long.
 Raffenetti 1 integral format.
 Two-electron integral symmetry is turned on.
    28 basis functions,    85 primitive gaussians,    29 cartesian basis functions
     9 alpha electrons        9 beta electrons
       nuclear repulsion energy         6.4078339391 Hartrees.
 NAtoms=    3 NActive=    3 NUniq=    2 SFac= 2.25D+00 NAtFMM=   50 NAOKFM=F Big=F
 One-electron integrals computed using PRISM.
 NBasis=    28 RedAO= T  NBF=    13     2     5     8
 NBsUse=    28 1.00D-06 NBFU=    13     2     5     8
 Initial guess read from the read-write file.
 B after Tr=     0.000000    0.000000    0.000000
         Rot=    1.000000    0.000000    0.000000    0.000000 Ang=   0.00 deg.
 Initial guess orbital symmetries:
       Occupied  (A1) (A1) (B2) (A1) (B1) (A1) (B1) (B2) (A1)
       Virtual   (A1) (B2) (A1) (B2) (B1) (A1) (B2) (A1) (A1) (B1)
                 (A2) (A1) (B2) (B2) (A2) (A1) (B1) (B2) (A1)
 Harris functional with IExCor=  205 diagonalized for initial guess.
 ExpMin= 1.22D-01 ExpMax= 1.11D+05 ExpMxC= 1.07D+03 IAcc=2 IRadAn=         0 AccDes= 0.00D+00
 HarFok:  IExCor=  205 AccDes= 0.00D+00 IRadAn=         0 IDoV= 1
 ScaDFX=  1.000000  1.000000  1.000000  1.000000
 FoFCou: FMM=F IPFlag=           0 FMFlag=      100000 FMFlg1=           0
         NFxFlg=           0 DoJE=T BraDBF=F KetDBF=T FulRan=T
         Omega=  0.000000  0.000000  1.000000  0.000000  0.000000 ICntrl=     500 IOpCl=  0
         NMat0=    1 NMatS0=    1 NMatT0=    0 NMatD0=    1 NMtDS0=    0 NMtDT0=    0
         I1Cent=           4 NGrid=           0.
 Petite list used in FoFCou.
 Requested convergence on RMS density matrix=1.00D-08 within 128 cycles.
 Requested convergence on MAX density matrix=1.00D-06.
 Requested convergence on             energy=1.00D-06.
 No special actions if energy rises.
 Keep R1 ints in memory in canonical form, NReq=935895.
 SCF Done:  E(RHF) =  -398.308415236     A.U. after   10 cycles
             Convg  =    0.2473D-08             -V/T =  2.0017
 ExpMin= 1.22D-01 ExpMax= 1.11D+05 ExpMxC= 1.07D+03 IAcc=3 IRadAn=         5 AccDes= 0.00D+00
 HarFok:  IExCor=  205 AccDes= 0.00D+00 IRadAn=         5 IDoV=-2
 ScaDFX=  1.000000  1.000000  1.000000  1.000000
 Range of M.O.s used for correlation:     6    28
 NBasis=    28 NAE=     9 NBE=     9 NFC=     5 NFV=     0
 NROrb=     23 NOA=     4 NOB=     4 NVA=    19 NVB=    19
 Semi-Direct transformation.
 ModeAB=           4 MOrb=             4 LenV=      33382667
 LASXX=         1917 LTotXX=        1917 LenRXX=        4243
 LTotAB=        2326 MaxLAS=       31740 LenRXY=           0
 NonZer=        6160 LenScr=     1048064 LnRSAI=       31740
 LnScr1=     1048064 LExtra=           0 Total=      2132111
 MaxDsk=          -1 SrtSym=           T ITran=            3
 JobTyp=0 Pass  1:  I=   1 to   4.
 (rs|ai) integrals will be sorted in core.
 Spin components of T(2) and E(2):
     alpha-alpha T2 =       0.1132554829D-01 E2=     -0.1698221036D-01
     alpha-beta  T2 =       0.1883370399D+00 E2=     -0.1806479732D+00
     beta-beta   T2 =       0.1132554829D-01 E2=     -0.1698221036D-01
 ANorm=    0.1100449061D+01
 E2 =    -0.2146123940D+00 EUMP2 =    -0.39852302763029D+03
 R2 and R3 integrals will be kept in memory, NReq=     1009660.
 Iterations=  50 Convergence= 0.100D-06
 Iteration Nr.   1
 **********************
 DD1Dir will call FoFMem   1 times, MxPair=        20
 NAB=    10 NAA=     0 NBB=     0.
 E3=       -0.37900554D-01        EUMP3=      -0.39856092818D+03
 DE(CI)=     -0.20780692     E(CI)=       -398.51622215    
 NORM(A)=   0.11038658D+01
 Iteration Nr.   2
 **********************
 DD1Dir will call FoFMem   1 times, MxPair=        20
 NAB=    10 NAA=     0 NBB=     0.
 DE(CI)=     -0.22043557     E(CI)=       -398.52885081    
 NORM(A)=   0.11386024D+01
 Iteration Nr.   3
 **********************
 DD1Dir will call FoFMem   1 times, MxPair=        20
 NAB=    10 NAA=     0 NBB=     0.
 DE(CI)=     -0.22787111     E(CI)=       -398.53628635    
 NORM(A)=   0.11494604D+01
 Iteration Nr.   4
 **********************
 DD1Dir will call FoFMem   1 times, MxPair=        20
 NAB=    10 NAA=     0 NBB=     0.
 DE(CI)=     -0.22863071     E(CI)=       -398.53704595    
 NORM(A)=   0.11492638D+01
 Iteration Nr.   5
 **********************
 DD1Dir will call FoFMem   1 times, MxPair=        20
 NAB=    10 NAA=     0 NBB=     0.
 DE(CI)=     -0.22837753     E(CI)=       -398.53679277    
 NORM(A)=   0.11523205D+01
 Iteration Nr.   6
 **********************
 DD1Dir will call FoFMem   1 times, MxPair=        20
 NAB=    10 NAA=     0 NBB=     0.
 DE(CI)=     -0.22876033     E(CI)=       -398.53717556    
 NORM(A)=   0.11549974D+01
 Iteration Nr.   7
 **********************
 DD1Dir will call FoFMem   1 times, MxPair=        20
 NAB=    10 NAA=     0 NBB=     0.
 DE(CI)=     -0.22903368     E(CI)=       -398.53744892    
 NORM(A)=   0.11551125D+01
 Iteration Nr.   8
 **********************
 DD1Dir will call FoFMem   1 times, MxPair=        20
 NAB=    10 NAA=     0 NBB=     0.
 DE(CI)=     -0.22897535     E(CI)=       -398.53739059    
 NORM(A)=   0.11546538D+01
 Iteration Nr.   9
 **********************
 DD1Dir will call FoFMem   1 times, MxPair=        20
 NAB=    10 NAA=     0 NBB=     0.
 DE(CI)=     -0.22890368     E(CI)=       -398.53731892    
 NORM(A)=   0.11546569D+01
 Iteration Nr.  10
 **********************
 DD1Dir will call FoFMem   1 times, MxPair=        20
 NAB=    10 NAA=     0 NBB=     0.
 DE(CI)=     -0.22891746     E(CI)=       -398.53733269    
 NORM(A)=   0.11547295D+01
 Iteration Nr.  11
 **********************
 DD1Dir will call FoFMem   1 times, MxPair=        20
 NAB=    10 NAA=     0 NBB=     0.
 DE(CI)=     -0.22892746     E(CI)=       -398.53734270    
 NORM(A)=   0.11546962D+01
 Iteration Nr.  12
 **********************
 DD1Dir will call FoFMem   1 times, MxPair=        20
 NAB=    10 NAA=     0 NBB=     0.
 DE(CI)=     -0.22892007     E(CI)=       -398.53733531    
 NORM(A)=   0.11546978D+01
 Iteration Nr.  13
 **********************
 DD1Dir will call FoFMem   1 times, MxPair=        20
 NAB=    10 NAA=     0 NBB=     0.
 DE(CI)=     -0.22892176     E(CI)=       -398.53733700    
 NORM(A)=   0.11546293D+01
 Iteration Nr.  14
 **********************
 DD1Dir will call FoFMem   1 times, MxPair=        20
 NAB=    10 NAA=     0 NBB=     0.
 DE(CI)=     -0.22890908     E(CI)=       -398.53732432    
 NORM(A)=   0.11547229D+01
 Iteration Nr.  15
 **********************
 DD1Dir will call FoFMem   1 times, MxPair=        20
 NAB=    10 NAA=     0 NBB=     0.
 DE(CI)=     -0.22892825     E(CI)=       -398.53734349    
 NORM(A)=   0.11546762D+01
 Iteration Nr.  16
 **********************
 DD1Dir will call FoFMem   1 times, MxPair=        20
 NAB=    10 NAA=     0 NBB=     0.
 DE(CI)=     -0.22891636     E(CI)=       -398.53733160    
 NORM(A)=   0.11547141D+01
 Iteration Nr.  17
 **********************
 DD1Dir will call FoFMem   1 times, MxPair=        20
 NAB=    10 NAA=     0 NBB=     0.
 DE(CI)=     -0.22892535     E(CI)=       -398.53734059    
 NORM(A)=   0.11547125D+01
 Iteration Nr.  18
 **********************
 DD1Dir will call FoFMem   1 times, MxPair=        20
 NAB=    10 NAA=     0 NBB=     0.
 DE(CI)=     -0.22892340     E(CI)=       -398.53733864    
 NORM(A)=   0.11547189D+01
 Iteration Nr.  19
 **********************
 DD1Dir will call FoFMem   1 times, MxPair=        20
 NAB=    10 NAA=     0 NBB=     0.
 DE(CI)=     -0.22892490     E(CI)=       -398.53734013    
 NORM(A)=   0.11547096D+01
 Iteration Nr.  20
 **********************
 DD1Dir will call FoFMem   1 times, MxPair=        20
 NAB=    10 NAA=     0 NBB=     0.
 DE(CI)=     -0.22892296     E(CI)=       -398.53733819    
 NORM(A)=   0.11547105D+01
 Iteration Nr.  21
 **********************
 DD1Dir will call FoFMem   1 times, MxPair=        20
 NAB=    10 NAA=     0 NBB=     0.
 DE(CI)=     -0.22892348     E(CI)=       -398.53733872    
 NORM(A)=   0.11547040D+01
 Iteration Nr.  22
 **********************
 DD1Dir will call FoFMem   1 times, MxPair=        20
 NAB=    10 NAA=     0 NBB=     0.
 DE(CI)=     -0.22892222     E(CI)=       -398.53733745    
 NORM(A)=   0.11547067D+01
 Iteration Nr.  23
 **********************
 DD1Dir will call FoFMem   1 times, MxPair=        20
 NAB=    10 NAA=     0 NBB=     0.
 DE(CI)=     -0.22892293     E(CI)=       -398.53733817    
 NORM(A)=   0.11547051D+01
 Iteration Nr.  24
 **********************
 DD1Dir will call FoFMem   1 times, MxPair=        20
 NAB=    10 NAA=     0 NBB=     0.
 DE(CI)=     -0.22892251     E(CI)=       -398.53733775    
 NORM(A)=   0.11547069D+01
 Iteration Nr.  25
 **********************
 DD1Dir will call FoFMem   1 times, MxPair=        20
 NAB=    10 NAA=     0 NBB=     0.
 DE(CI)=     -0.22892290     E(CI)=       -398.53733813    
 NORM(A)=   0.11547087D+01
 Iteration Nr.  26
 **********************
 DD1Dir will call FoFMem   1 times, MxPair=        20
 NAB=    10 NAA=     0 NBB=     0.
 DE(CI)=     -0.22892314     E(CI)=       -398.53733837    
 NORM(A)=   0.11547074D+01
 Iteration Nr.  27
 **********************
 DD1Dir will call FoFMem   1 times, MxPair=        20
 NAB=    10 NAA=     0 NBB=     0.
 DE(CI)=     -0.22892288     E(CI)=       -398.53733811    
 NORM(A)=   0.11547069D+01
 Iteration Nr.  28
 **********************
 DD1Dir will call FoFMem   1 times, MxPair=        20
 NAB=    10 NAA=     0 NBB=     0.
 DE(CI)=     -0.22892283     E(CI)=       -398.53733807    
 NORM(A)=   0.11547063D+01
 ***************************************************************
 Dominant configurations:
 ***********************
 Spin Case        I    J    A    B          Value
   ABAB           9    9   10   10      -0.245803D+00
   ABAB           9    9   11   11      -0.110913D+00
   ABAB           8    8   10   10      -0.109689D+00
   ABAB           8    8   11   11      -0.248109D+00
   ABAB           9    8   10   11      -0.157933D+00
   ABAB           9    8   11   10      -0.189835D+00
   ABAB           8    9   10   11      -0.189835D+00
   ABAB           8    9   11   10      -0.157933D+00
 Largest amplitude= 2.48D-01
 Variable Step   Value    
 -------- ---- -----------
     1       4    4.913288
 ---------------------------------------------------------------------------------------------------
                            Z-MATRIX (ANGSTROMS AND DEGREES)
   CD    Cent   Atom    N1       Length/X        N2       Alpha/Y        N3        Beta/Z          J
 ---------------------------------------------------------------------------------------------------
      1      1  S 
      2      2  H        1   2.600000(     1)
      3      3  H        1   2.600000(     2)      2   92.110(     3)
 ---------------------------------------------------------------------------------------------------
                         Z-Matrix orientation:                         
 ---------------------------------------------------------------------
 Center     Atomic      Atomic             Coordinates (Angstroms)
 Number     Number       Type             X           Y           Z
 ---------------------------------------------------------------------
      1         16           0        0.000000    0.000000    0.000000
      2          1           0        0.000000    0.000000    2.600000
      3          1           0        2.598237    0.000000   -0.095727
 ---------------------------------------------------------------------
                    Distance matrix (angstroms):
                    1          2          3
     1  S    0.000000
     2  H    2.600000   0.000000
     3  H    2.600000   3.744033   0.000000
 Stoichiometry    H2S
 Framework group  C2V[C2(S),SGV(H2)]
 Deg. of freedom     2
 Full point group                 C2V     NOp   4
 Largest Abelian subgroup         C2V     NOp   4
 Largest concise Abelian subgroup C2      NOp   2
                         Standard orientation:                         
 ---------------------------------------------------------------------
 Center     Atomic      Atomic             Coordinates (Angstroms)
 Number     Number       Type             X           Y           Z
 ---------------------------------------------------------------------
      1         16           0        0.000000    0.000000    0.200480
      2          1           0        0.000000    1.872016   -1.603836
      3          1           0        0.000000   -1.872016   -1.603836
 ---------------------------------------------------------------------
 Rotational constants (GHZ):     81.8706675     71.5455747     38.1803378
 Standard basis: CC-pVDZ (5D, 7F)
 There are    13 symmetry adapted basis functions of A1  symmetry.
 There are     2 symmetry adapted basis functions of A2  symmetry.
 There are     5 symmetry adapted basis functions of B1  symmetry.
 There are     8 symmetry adapted basis functions of B2  symmetry.
 Integral buffers will be    262144 words long.
 Raffenetti 1 integral format.
 Two-electron integral symmetry is turned on.
    28 basis functions,    85 primitive gaussians,    29 cartesian basis functions
     9 alpha electrons        9 beta electrons
       nuclear repulsion energy         6.6542890906 Hartrees.
 NAtoms=    3 NActive=    3 NUniq=    2 SFac= 2.25D+00 NAtFMM=   50 NAOKFM=F Big=F
 One-electron integrals computed using PRISM.
 NBasis=    28 RedAO= T  NBF=    13     2     5     8
 NBsUse=    28 1.00D-06 NBFU=    13     2     5     8
 Initial guess read from the read-write file.
 B after Tr=     0.000000    0.000000    0.000000
         Rot=    1.000000    0.000000    0.000000    0.000000 Ang=   0.00 deg.
 Initial guess orbital symmetries:
       Occupied  (A1) (A1) (B2) (A1) (B1) (A1) (B1) (B2) (A1)
       Virtual   (A1) (B2) (A1) (B2) (B1) (A1) (B2) (A1) (A1) (B1)
                 (A2) (A1) (B2) (A2) (B2) (A1) (B1) (B2) (A1)
 Harris functional with IExCor=  205 diagonalized for initial guess.
 ExpMin= 1.22D-01 ExpMax= 1.11D+05 ExpMxC= 1.07D+03 IAcc=2 IRadAn=         0 AccDes= 0.00D+00
 HarFok:  IExCor=  205 AccDes= 0.00D+00 IRadAn=         0 IDoV= 1
 ScaDFX=  1.000000  1.000000  1.000000  1.000000
 FoFCou: FMM=F IPFlag=           0 FMFlag=      100000 FMFlg1=           0
         NFxFlg=           0 DoJE=T BraDBF=F KetDBF=T FulRan=T
         Omega=  0.000000  0.000000  1.000000  0.000000  0.000000 ICntrl=     500 IOpCl=  0
         NMat0=    1 NMatS0=    1 NMatT0=    0 NMatD0=    1 NMtDS0=    0 NMtDT0=    0
         I1Cent=           4 NGrid=           0.
 Petite list used in FoFCou.
 Requested convergence on RMS density matrix=1.00D-08 within 128 cycles.
 Requested convergence on MAX density matrix=1.00D-06.
 Requested convergence on             energy=1.00D-06.
 No special actions if energy rises.
 Keep R1 ints in memory in canonical form, NReq=935895.
 SCF Done:  E(RHF) =  -398.331711925     A.U. after   10 cycles
             Convg  =    0.2026D-08             -V/T =  2.0018
 ExpMin= 1.22D-01 ExpMax= 1.11D+05 ExpMxC= 1.07D+03 IAcc=3 IRadAn=         5 AccDes= 0.00D+00
 HarFok:  IExCor=  205 AccDes= 0.00D+00 IRadAn=         5 IDoV=-2
 ScaDFX=  1.000000  1.000000  1.000000  1.000000
 Range of M.O.s used for correlation:     6    28
 NBasis=    28 NAE=     9 NBE=     9 NFC=     5 NFV=     0
 NROrb=     23 NOA=     4 NOB=     4 NVA=    19 NVB=    19
 Semi-Direct transformation.
 ModeAB=           4 MOrb=             4 LenV=      33382639
 LASXX=         1917 LTotXX=        1917 LenRXX=        4243
 LTotAB=        2326 MaxLAS=       31740 LenRXY=           0
 NonZer=        6160 LenScr=     1048064 LnRSAI=       31740
 LnScr1=     1048064 LExtra=           0 Total=      2132111
 MaxDsk=          -1 SrtSym=           T ITran=            3
 JobTyp=0 Pass  1:  I=   1 to   4.
 (rs|ai) integrals will be sorted in core.
 Spin components of T(2) and E(2):
     alpha-alpha T2 =       0.1047356631D-01 E2=     -0.1659573637D-01
     alpha-beta  T2 =       0.1659745118D+00 E2=     -0.1720211738D+00
     beta-beta   T2 =       0.1047356631D-01 E2=     -0.1659573637D-01
 ANorm=    0.1089459336D+01
 E2 =    -0.2052126466D+00 EUMP2 =    -0.39853692457150D+03
 R2 and R3 integrals will be kept in memory, NReq=     1009660.
 Iterations=  50 Convergence= 0.100D-06
 Iteration Nr.   1
 **********************
 DD1Dir will call FoFMem   1 times, MxPair=        20
 NAB=    10 NAA=     0 NBB=     0.
 E3=       -0.35963310D-01        EUMP3=      -0.39857288788D+03
 DE(CI)=     -0.20245122     E(CI)=       -398.53416315    
 NORM(A)=   0.10959252D+01
 Iteration Nr.   2
 **********************
 DD1Dir will call FoFMem   1 times, MxPair=        20
 NAB=    10 NAA=     0 NBB=     0.
 DE(CI)=     -0.21352114     E(CI)=       -398.54523306    
 NORM(A)=   0.11262670D+01
 Iteration Nr.   3
 **********************
 DD1Dir will call FoFMem   1 times, MxPair=        20
 NAB=    10 NAA=     0 NBB=     0.
 DE(CI)=     -0.22039138     E(CI)=       -398.55210331    
 NORM(A)=   0.11357304D+01
 Iteration Nr.   4
 **********************
 DD1Dir will call FoFMem   1 times, MxPair=        20
 NAB=    10 NAA=     0 NBB=     0.
 DE(CI)=     -0.22120564     E(CI)=       -398.55291757    
 NORM(A)=   0.11352584D+01
 Iteration Nr.   5
 **********************
 DD1Dir will call FoFMem   1 times, MxPair=        20
 NAB=    10 NAA=     0 NBB=     0.
 DE(CI)=     -0.22090419     E(CI)=       -398.55261611    
 NORM(A)=   0.11367390D+01
 Iteration Nr.   6
 **********************
 DD1Dir will call FoFMem   1 times, MxPair=        20
 NAB=    10 NAA=     0 NBB=     0.
 DE(CI)=     -0.22111608     E(CI)=       -398.55282801    
 NORM(A)=   0.11386399D+01
 Iteration Nr.   7
 **********************
 DD1Dir will call FoFMem   1 times, MxPair=        20
 NAB=    10 NAA=     0 NBB=     0.
 DE(CI)=     -0.22136795     E(CI)=       -398.55307988    
 NORM(A)=   0.11387537D+01
 Iteration Nr.   8
 **********************
 DD1Dir will call FoFMem   1 times, MxPair=        20
 NAB=    10 NAA=     0 NBB=     0.
 DE(CI)=     -0.22132986     E(CI)=       -398.55304179    
 NORM(A)=   0.11384035D+01
 Iteration Nr.   9
 **********************
 DD1Dir will call FoFMem   1 times, MxPair=        20
 NAB=    10 NAA=     0 NBB=     0.
 DE(CI)=     -0.22126844     E(CI)=       -398.55298036    
 NORM(A)=   0.11384159D+01
 Iteration Nr.  10
 **********************
 DD1Dir will call FoFMem   1 times, MxPair=        20
 NAB=    10 NAA=     0 NBB=     0.
 DE(CI)=     -0.22128160     E(CI)=       -398.55299353    
 NORM(A)=   0.11384741D+01
 Iteration Nr.  11
 **********************
 DD1Dir will call FoFMem   1 times, MxPair=        20
 NAB=    10 NAA=     0 NBB=     0.
 DE(CI)=     -0.22129025     E(CI)=       -398.55300218    
 NORM(A)=   0.11384417D+01
 Iteration Nr.  12
 **********************
 DD1Dir will call FoFMem   1 times, MxPair=        20
 NAB=    10 NAA=     0 NBB=     0.
 DE(CI)=     -0.22128285     E(CI)=       -398.55299477    
 NORM(A)=   0.11384440D+01
 Iteration Nr.  13
 **********************
 DD1Dir will call FoFMem   1 times, MxPair=        20
 NAB=    10 NAA=     0 NBB=     0.
 DE(CI)=     -0.22128457     E(CI)=       -398.55299650    
 NORM(A)=   0.11384395D+01
 Iteration Nr.  14
 **********************
 DD1Dir will call FoFMem   1 times, MxPair=        20
 NAB=    10 NAA=     0 NBB=     0.
 DE(CI)=     -0.22128330     E(CI)=       -398.55299522    
 NORM(A)=   0.11384347D+01
 Iteration Nr.  15
 **********************
 DD1Dir will call FoFMem   1 times, MxPair=        20
 NAB=    10 NAA=     0 NBB=     0.
 DE(CI)=     -0.22128257     E(CI)=       -398.55299450    
 NORM(A)=   0.11384308D+01
 Iteration Nr.  16
 **********************
 DD1Dir will call FoFMem   1 times, MxPair=        20
 NAB=    10 NAA=     0 NBB=     0.
 DE(CI)=     -0.22128187     E(CI)=       -398.55299379    
 NORM(A)=   0.11384694D+01
 Iteration Nr.  17
 **********************
 DD1Dir will call FoFMem   1 times, MxPair=        20
 NAB=    10 NAA=     0 NBB=     0.
 DE(CI)=     -0.22128902     E(CI)=       -398.55300095    
 NORM(A)=   0.11384486D+01
 Iteration Nr.  18
 **********************
 DD1Dir will call FoFMem   1 times, MxPair=        20
 NAB=    10 NAA=     0 NBB=     0.
 DE(CI)=     -0.22128434     E(CI)=       -398.55299627    
 NORM(A)=   0.11384503D+01
 Iteration Nr.  19
 **********************
 DD1Dir will call FoFMem   1 times, MxPair=        20
 NAB=    10 NAA=     0 NBB=     0.
 DE(CI)=     -0.22128543     E(CI)=       -398.55299735    
 NORM(A)=   0.11384509D+01
 Iteration Nr.  20
 **********************
 DD1Dir will call FoFMem   1 times, MxPair=        20
 NAB=    10 NAA=     0 NBB=     0.
 DE(CI)=     -0.22128535     E(CI)=       -398.55299728    
 NORM(A)=   0.11384517D+01
 ***************************************************************
 Dominant configurations:
 ***********************
 Spin Case        I    J    A    B          Value
   ABAB           9    9   10   10      -0.223194D+00
   ABAB           9    9   11   11      -0.110004D+00
   ABAB           8    8   10   10      -0.110522D+00
   ABAB           8    8   11   11      -0.226153D+00
   ABAB           9    8   10   11      -0.151061D+00
   ABAB           9    8   11   10      -0.173664D+00
   ABAB           8    9   10   11      -0.173664D+00
   ABAB           8    9   11   10      -0.151061D+00
 Largest amplitude= 2.26D-01
 Variable Step   Value    
 -------- ---- -----------
     1       5    4.724315
 ---------------------------------------------------------------------------------------------------
                            Z-MATRIX (ANGSTROMS AND DEGREES)
   CD    Cent   Atom    N1       Length/X        N2       Alpha/Y        N3        Beta/Z          J
 ---------------------------------------------------------------------------------------------------
      1      1  S 
      2      2  H        1   2.500000(     1)
      3      3  H        1   2.500000(     2)      2   92.110(     3)
 ---------------------------------------------------------------------------------------------------
                         Z-Matrix orientation:                         
 ---------------------------------------------------------------------
 Center     Atomic      Atomic             Coordinates (Angstroms)
 Number     Number       Type             X           Y           Z
 ---------------------------------------------------------------------
      1         16           0        0.000000    0.000000    0.000000
      2          1           0        0.000000    0.000000    2.500000
      3          1           0        2.498305    0.000000   -0.092045
 ---------------------------------------------------------------------
                    Distance matrix (angstroms):
                    1          2          3
     1  S    0.000000
     2  H    2.500000   0.000000
     3  H    2.500000   3.600031   0.000000
 Stoichiometry    H2S
 Framework group  C2V[C2(S),SGV(H2)]
 Deg. of freedom     2
 Full point group                 C2V     NOp   4
 Largest Abelian subgroup         C2V     NOp   4
 Largest concise Abelian subgroup C2      NOp   2
                         Standard orientation:                         
 ---------------------------------------------------------------------
 Center     Atomic      Atomic             Coordinates (Angstroms)
 Number     Number       Type             X           Y           Z
 ---------------------------------------------------------------------
      1         16           0        0.000000    0.000000    0.192769
      2          1           0        0.000000    1.800016   -1.542150
      3          1           0        0.000000   -1.800016   -1.542150
 ---------------------------------------------------------------------
 Rotational constants (GHZ):     88.5513139     77.3836936     41.2958534
 Standard basis: CC-pVDZ (5D, 7F)
 There are    13 symmetry adapted basis functions of A1  symmetry.
 There are     2 symmetry adapted basis functions of A2  symmetry.
 There are     5 symmetry adapted basis functions of B1  symmetry.
 There are     8 symmetry adapted basis functions of B2  symmetry.
 Integral buffers will be    262144 words long.
 Raffenetti 1 integral format.
 Two-electron integral symmetry is turned on.
    28 basis functions,    85 primitive gaussians,    29 cartesian basis functions
     9 alpha electrons        9 beta electrons
       nuclear repulsion energy         6.9204606543 Hartrees.
 NAtoms=    3 NActive=    3 NUniq=    2 SFac= 2.25D+00 NAtFMM=   50 NAOKFM=F Big=F
 One-electron integrals computed using PRISM.
 NBasis=    28 RedAO= T  NBF=    13     2     5     8
 NBsUse=    28 1.00D-06 NBFU=    13     2     5     8
 Initial guess read from the read-write file.
 B after Tr=     0.000000    0.000000    0.000000
         Rot=    1.000000    0.000000    0.000000    0.000000 Ang=   0.00 deg.
 Initial guess orbital symmetries:
       Occupied  (A1) (A1) (B2) (A1) (B1) (A1) (B1) (B2) (A1)
       Virtual   (A1) (B2) (A1) (B2) (B1) (A1) (B2) (A1) (A1) (A2)
                 (B1) (A1) (B2) (A2) (B2) (A1) (B1) (B2) (A1)
 Harris functional with IExCor=  205 diagonalized for initial guess.
 ExpMin= 1.22D-01 ExpMax= 1.11D+05 ExpMxC= 1.07D+03 IAcc=2 IRadAn=         0 AccDes= 0.00D+00
 HarFok:  IExCor=  205 AccDes= 0.00D+00 IRadAn=         0 IDoV= 1
 ScaDFX=  1.000000  1.000000  1.000000  1.000000
 FoFCou: FMM=F IPFlag=           0 FMFlag=      100000 FMFlg1=           0
         NFxFlg=           0 DoJE=T BraDBF=F KetDBF=T FulRan=T
         Omega=  0.000000  0.000000  1.000000  0.000000  0.000000 ICntrl=     500 IOpCl=  0
         NMat0=    1 NMatS0=    1 NMatT0=    0 NMatD0=    1 NMtDS0=    0 NMtDT0=    0
         I1Cent=           4 NGrid=           0.
 Petite list used in FoFCou.
 Requested convergence on RMS density matrix=1.00D-08 within 128 cycles.
 Requested convergence on MAX density matrix=1.00D-06.
 Requested convergence on             energy=1.00D-06.
 No special actions if energy rises.
 Keep R1 ints in memory in canonical form, NReq=935895.
 SCF Done:  E(RHF) =  -398.356719154     A.U. after   10 cycles
             Convg  =    0.1749D-08             -V/T =  2.0018
 ExpMin= 1.22D-01 ExpMax= 1.11D+05 ExpMxC= 1.07D+03 IAcc=3 IRadAn=         5 AccDes= 0.00D+00
 HarFok:  IExCor=  205 AccDes= 0.00D+00 IRadAn=         5 IDoV=-2
 ScaDFX=  1.000000  1.000000  1.000000  1.000000
 Range of M.O.s used for correlation:     6    28
 NBasis=    28 NAE=     9 NBE=     9 NFC=     5 NFV=     0
 NROrb=     23 NOA=     4 NOB=     4 NVA=    19 NVB=    19
 Semi-Direct transformation.
 ModeAB=           4 MOrb=             4 LenV=      33382611
 LASXX=         1917 LTotXX=        1917 LenRXX=        4243
 LTotAB=        2326 MaxLAS=       31740 LenRXY=           0
 NonZer=        6160 LenScr=     1048064 LnRSAI=       31740
 LnScr1=     1048064 LExtra=           0 Total=      2132111
 MaxDsk=          -1 SrtSym=           T ITran=            3
 JobTyp=0 Pass  1:  I=   1 to   4.
 (rs|ai) integrals will be sorted in core.
 Spin components of T(2) and E(2):
     alpha-alpha T2 =       0.9741718581D-02 E2=     -0.1625478832D-01
     alpha-beta  T2 =       0.1462827293D+00 E2=     -0.1640177642D+00
     beta-beta   T2 =       0.9741718581D-02 E2=     -0.1625478832D-01
 ANorm=    0.1079706519D+01
 E2 =    -0.1965273408D+00 EUMP2 =    -0.39855324649468D+03
 R2 and R3 integrals will be kept in memory, NReq=     1009660.
 Iterations=  50 Convergence= 0.100D-06
 Iteration Nr.   1
 **********************
 DD1Dir will call FoFMem   1 times, MxPair=        20
 NAB=    10 NAA=     0 NBB=     0.
 E3=       -0.34018929D-01        EUMP3=      -0.39858726542D+03
 DE(CI)=     -0.19704026     E(CI)=       -398.55375941    
 NORM(A)=   0.10881958D+01
 Iteration Nr.   2
 **********************
 DD1Dir will call FoFMem   1 times, MxPair=        20
 NAB=    10 NAA=     0 NBB=     0.
 DE(CI)=     -0.20677970     E(CI)=       -398.56349886    
 NORM(A)=   0.11142638D+01
 Iteration Nr.   3
 **********************
 DD1Dir will call FoFMem   1 times, MxPair=        20
 NAB=    10 NAA=     0 NBB=     0.
 DE(CI)=     -0.21302523     E(CI)=       -398.56974438    
 NORM(A)=   0.11222213D+01
 Iteration Nr.   4
 **********************
 DD1Dir will call FoFMem   1 times, MxPair=        20
 NAB=    10 NAA=     0 NBB=     0.
 DE(CI)=     -0.21382010     E(CI)=       -398.57053925    
 NORM(A)=   0.11217035D+01
 Iteration Nr.   5
 **********************
 DD1Dir will call FoFMem   1 times, MxPair=        20
 NAB=    10 NAA=     0 NBB=     0.
 DE(CI)=     -0.21352807     E(CI)=       -398.57024723    
 NORM(A)=   0.11223676D+01
 Iteration Nr.   6
 **********************
 DD1Dir will call FoFMem   1 times, MxPair=        20
 NAB=    10 NAA=     0 NBB=     0.
 DE(CI)=     -0.21364156     E(CI)=       -398.57036071    
 NORM(A)=   0.11236534D+01
 Iteration Nr.   7
 **********************
 DD1Dir will call FoFMem   1 times, MxPair=        20
 NAB=    10 NAA=     0 NBB=     0.
 DE(CI)=     -0.21384503     E(CI)=       -398.57056419    
 NORM(A)=   0.11237121D+01
 Iteration Nr.   8
 **********************
 DD1Dir will call FoFMem   1 times, MxPair=        20
 NAB=    10 NAA=     0 NBB=     0.
 DE(CI)=     -0.21381577     E(CI)=       -398.57053492    
 NORM(A)=   0.11234645D+01
 Iteration Nr.   9
 **********************
 DD1Dir will call FoFMem   1 times, MxPair=        20
 NAB=    10 NAA=     0 NBB=     0.
 DE(CI)=     -0.21376901     E(CI)=       -398.57048817    
 NORM(A)=   0.11234884D+01
 Iteration Nr.  10
 **********************
 DD1Dir will call FoFMem   1 times, MxPair=        20
 NAB=    10 NAA=     0 NBB=     0.
[...]
 Variable Step   Value    
 -------- ---- -----------
     1      19    2.078699
 ---------------------------------------------------------------------------------------------------
                            Z-MATRIX (ANGSTROMS AND DEGREES)
   CD    Cent   Atom    N1       Length/X        N2       Alpha/Y        N3        Beta/Z          J
 ---------------------------------------------------------------------------------------------------
      1      1  S 
      2      2  H        1   1.100000(     1)
      3      3  H        1   1.100000(     2)      2   92.110(     3)
 ---------------------------------------------------------------------------------------------------
                         Z-Matrix orientation:                         
 ---------------------------------------------------------------------
 Center     Atomic      Atomic             Coordinates (Angstroms)
 Number     Number       Type             X           Y           Z
 ---------------------------------------------------------------------
      1         16           0        0.000000    0.000000    0.000000
      2          1           0        0.000000    0.000000    1.100000
      3          1           0        1.099254    0.000000   -0.040500
 ---------------------------------------------------------------------
                    Distance matrix (angstroms):
                    1          2          3
     1  S    0.000000
     2  H    1.100000   0.000000
     3  H    1.100000   1.584014   0.000000
 Stoichiometry    H2S
 Framework group  C2V[C2(S),SGV(H2)]
 Deg. of freedom     2
 Full point group                 C2V     NOp   4
 Largest Abelian subgroup         C2V     NOp   4
 Largest concise Abelian subgroup C2      NOp   2
                         Standard orientation:                         
 ---------------------------------------------------------------------
 Center     Atomic      Atomic             Coordinates (Angstroms)
 Number     Number       Type             X           Y           Z
 ---------------------------------------------------------------------
      1         16           0        0.000000    0.000000    0.084818
      2          1           0        0.000000    0.792007   -0.678546
      3          1           0        0.000000   -0.792007   -0.678546
 ---------------------------------------------------------------------
 Rotational constants (GHZ):    457.3931504    399.7091613    213.3050279
 Standard basis: CC-pVDZ (5D, 7F)
 There are    13 symmetry adapted basis functions of A1  symmetry.
 There are     2 symmetry adapted basis functions of A2  symmetry.
 There are     5 symmetry adapted basis functions of B1  symmetry.
 There are     8 symmetry adapted basis functions of B2  symmetry.
 Integral buffers will be    262144 words long.
 Raffenetti 1 integral format.
 Two-electron integral symmetry is turned on.
    28 basis functions,    85 primitive gaussians,    29 cartesian basis functions
     9 alpha electrons        9 beta electrons
       nuclear repulsion energy        15.7283196688 Hartrees.
 NAtoms=    3 NActive=    3 NUniq=    2 SFac= 2.25D+00 NAtFMM=   50 NAOKFM=F Big=F
 One-electron integrals computed using PRISM.
 NBasis=    28 RedAO= T  NBF=    13     2     5     8
 NBsUse=    28 1.00D-06 NBFU=    13     2     5     8
 Initial guess read from the read-write file.
 B after Tr=     0.000000    0.000000    0.000000
         Rot=    1.000000    0.000000    0.000000    0.000000 Ang=   0.00 deg.
 Initial guess orbital symmetries:
       Occupied  (A1) (A1) (B2) (A1) (B1) (A1) (B2) (A1) (B1)
       Virtual   (A1) (B2) (B2) (A1) (A1) (B1) (A1) (A2) (B1) (B2)
                 (A1) (A1) (B2) (B2) (A2) (B1) (A1) (A1) (B2)
 Harris functional with IExCor=  205 diagonalized for initial guess.
 ExpMin= 1.22D-01 ExpMax= 1.11D+05 ExpMxC= 1.07D+03 IAcc=2 IRadAn=         0 AccDes= 0.00D+00
 HarFok:  IExCor=  205 AccDes= 0.00D+00 IRadAn=         0 IDoV= 1
 ScaDFX=  1.000000  1.000000  1.000000  1.000000
 FoFCou: FMM=F IPFlag=           0 FMFlag=      100000 FMFlg1=           0
         NFxFlg=           0 DoJE=T BraDBF=F KetDBF=T FulRan=T
         Omega=  0.000000  0.000000  1.000000  0.000000  0.000000 ICntrl=     500 IOpCl=  0
         NMat0=    1 NMatS0=    1 NMatT0=    0 NMatD0=    1 NMtDS0=    0 NMtDT0=    0
         I1Cent=           4 NGrid=           0.
 Petite list used in FoFCou.
 Requested convergence on RMS density matrix=1.00D-08 within 128 cycles.
 Requested convergence on MAX density matrix=1.00D-06.
 Requested convergence on             energy=1.00D-06.
 No special actions if energy rises.
 Keep R1 ints in memory in canonical form, NReq=935895.
 SCF Done:  E(RHF) =  -398.598648697     A.U. after   10 cycles
             Convg  =    0.2103D-08             -V/T =  1.9975
 ExpMin= 1.22D-01 ExpMax= 1.11D+05 ExpMxC= 1.07D+03 IAcc=3 IRadAn=         5 AccDes= 0.00D+00
 HarFok:  IExCor=  205 AccDes= 0.00D+00 IRadAn=         5 IDoV=-2
 ScaDFX=  1.000000  1.000000  1.000000  1.000000
 Range of M.O.s used for correlation:     6    28
 NBasis=    28 NAE=     9 NBE=     9 NFC=     5 NFV=     0
 NROrb=     23 NOA=     4 NOB=     4 NVA=    19 NVB=    19
 Semi-Direct transformation.
 ModeAB=           4 MOrb=             4 LenV=      33381421
 LASXX=         1917 LTotXX=        1917 LenRXX=        4243
 LTotAB=        2326 MaxLAS=       31740 LenRXY=           0
 NonZer=        6160 LenScr=     1048064 LnRSAI=       31740
 LnScr1=     1048064 LExtra=           0 Total=      2132111
 MaxDsk=          -1 SrtSym=           T ITran=            3
 JobTyp=0 Pass  1:  I=   1 to   4.
 (rs|ai) integrals will be sorted in core.
 Spin components of T(2) and E(2):
     alpha-alpha T2 =       0.6297075783D-02 E2=     -0.1579942926D-01
     alpha-beta  T2 =       0.4109888377D-01 E2=     -0.1103026804D+00
     beta-beta   T2 =       0.6297075783D-02 E2=     -0.1579942926D-01
 ANorm=    0.1026495512D+01
 E2 =    -0.1419015389D+00 EUMP2 =    -0.39874055023610D+03
 R2 and R3 integrals will be kept in memory, NReq=     1009660.
 Iterations=  50 Convergence= 0.100D-06
 Iteration Nr.   1
 **********************
 DD1Dir will call FoFMem   1 times, MxPair=        20
 NAB=    10 NAA=     0 NBB=     0.
 E3=       -0.19119409D-01        EUMP3=      -0.39875966965D+03
 DE(CI)=     -0.15284719     E(CI)=       -398.75149589    
 NORM(A)=   0.10310420D+01
 Iteration Nr.   2
 **********************
 DD1Dir will call FoFMem   1 times, MxPair=        20
 NAB=    10 NAA=     0 NBB=     0.
 DE(CI)=     -0.15512273     E(CI)=       -398.75377143    
 NORM(A)=   0.10319674D+01
 Iteration Nr.   3
 **********************
 DD1Dir will call FoFMem   1 times, MxPair=        20
 NAB=    10 NAA=     0 NBB=     0.
 DE(CI)=     -0.15561374     E(CI)=       -398.75426244    
 NORM(A)=   0.10320400D+01
 Iteration Nr.   4
 **********************
 DD1Dir will call FoFMem   1 times, MxPair=        20
 NAB=    10 NAA=     0 NBB=     0.
 DE(CI)=     -0.15564156     E(CI)=       -398.75429026    
 NORM(A)=   0.10320404D+01
 Iteration Nr.   5
 **********************
 DD1Dir will call FoFMem   1 times, MxPair=        20
 NAB=    10 NAA=     0 NBB=     0.
 DE(CI)=     -0.15563931     E(CI)=       -398.75428801    
 NORM(A)=   0.10320422D+01
 Iteration Nr.   6
 **********************
 DD1Dir will call FoFMem   1 times, MxPair=        20
 NAB=    10 NAA=     0 NBB=     0.
 DE(CI)=     -0.15563984     E(CI)=       -398.75428854    
 NORM(A)=   0.10320424D+01
 Iteration Nr.   7
 **********************
 DD1Dir will call FoFMem   1 times, MxPair=        20
 NAB=    10 NAA=     0 NBB=     0.
 DE(CI)=     -0.15563989     E(CI)=       -398.75428859    
 NORM(A)=   0.10320424D+01
 ***************************************************************
 Largest amplitude= 4.48D-02
 Variable Step   Value    
 -------- ---- -----------
     1      20    1.889726
 ---------------------------------------------------------------------------------------------------
                            Z-MATRIX (ANGSTROMS AND DEGREES)
   CD    Cent   Atom    N1       Length/X        N2       Alpha/Y        N3        Beta/Z          J
 ---------------------------------------------------------------------------------------------------
      1      1  S 
      2      2  H        1   1.000000(     1)
      3      3  H        1   1.000000(     2)      2   92.110(     3)
 ---------------------------------------------------------------------------------------------------
                         Z-Matrix orientation:                         
 ---------------------------------------------------------------------
 Center     Atomic      Atomic             Coordinates (Angstroms)
 Number     Number       Type             X           Y           Z
 ---------------------------------------------------------------------
      1         16           0        0.000000    0.000000    0.000000
      2          1           0        0.000000    0.000000    1.000000
      3          1           0        0.999322    0.000000   -0.036818
 ---------------------------------------------------------------------
                    Distance matrix (angstroms):
                    1          2          3
     1  S    0.000000
     2  H    1.000000   0.000000
     3  H    1.000000   1.440013   0.000000
 Stoichiometry    H2S
 Framework group  C2V[C2(S),SGV(H2)]
 Deg. of freedom     2
 Full point group                 C2V     NOp   4
 Largest Abelian subgroup         C2V     NOp   4
 Largest concise Abelian subgroup C2      NOp   2
                         Standard orientation:                         
 ---------------------------------------------------------------------
 Center     Atomic      Atomic             Coordinates (Angstroms)
 Number     Number       Type             X           Y           Z
 ---------------------------------------------------------------------
      1         16           0        0.000000    0.000000    0.077108
      2          1           0        0.000000    0.720006   -0.616860
      3          1           0        0.000000   -0.720006   -0.616860
 ---------------------------------------------------------------------
 Rotational constants (GHZ):    553.4457120    483.6480852    258.0990838
 Standard basis: CC-pVDZ (5D, 7F)
 There are    13 symmetry adapted basis functions of A1  symmetry.
 There are     2 symmetry adapted basis functions of A2  symmetry.
 There are     5 symmetry adapted basis functions of B1  symmetry.
 There are     8 symmetry adapted basis functions of B2  symmetry.
 Integral buffers will be    262144 words long.
 Raffenetti 1 integral format.
 Two-electron integral symmetry is turned on.
    28 basis functions,    85 primitive gaussians,    29 cartesian basis functions
     9 alpha electrons        9 beta electrons
       nuclear repulsion energy        17.3011516356 Hartrees.
 NAtoms=    3 NActive=    3 NUniq=    2 SFac= 2.25D+00 NAtFMM=   50 NAOKFM=F Big=F
 One-electron integrals computed using PRISM.
 NBasis=    28 RedAO= T  NBF=    13     2     5     8
 NBsUse=    28 1.00D-06 NBFU=    13     2     5     8
 Initial guess read from the read-write file.
 B after Tr=     0.000000    0.000000    0.000000
         Rot=    1.000000    0.000000    0.000000    0.000000 Ang=   0.00 deg.
 Initial guess orbital symmetries:
       Occupied  (A1) (A1) (B2) (A1) (B1) (A1) (B2) (A1) (B1)
       Virtual   (A1) (B2) (B2) (A1) (B1) (A1) (A1) (A2) (B1) (B2)
                 (A1) (A1) (B2) (A2) (B2) (B1) (A1) (A1) (B2)
 Harris functional with IExCor=  205 diagonalized for initial guess.
 ExpMin= 1.22D-01 ExpMax= 1.11D+05 ExpMxC= 1.07D+03 IAcc=2 IRadAn=         0 AccDes= 0.00D+00
 HarFok:  IExCor=  205 AccDes= 0.00D+00 IRadAn=         0 IDoV= 1
 ScaDFX=  1.000000  1.000000  1.000000  1.000000
 FoFCou: FMM=F IPFlag=           0 FMFlag=      100000 FMFlg1=           0
         NFxFlg=           0 DoJE=T BraDBF=F KetDBF=T FulRan=T
         Omega=  0.000000  0.000000  1.000000  0.000000  0.000000 ICntrl=     500 IOpCl=  0
         NMat0=    1 NMatS0=    1 NMatT0=    0 NMatD0=    1 NMtDS0=    0 NMtDT0=    0
         I1Cent=           4 NGrid=           0.
 Petite list used in FoFCou.
 Requested convergence on RMS density matrix=1.00D-08 within 128 cycles.
 Requested convergence on MAX density matrix=1.00D-06.
 Requested convergence on             energy=1.00D-06.
 No special actions if energy rises.
 Keep R1 ints in memory in canonical form, NReq=935895.
 SCF Done:  E(RHF) =  -398.460099219     A.U. after   10 cycles
             Convg  =    0.3312D-08             -V/T =  1.9956
 ExpMin= 1.22D-01 ExpMax= 1.11D+05 ExpMxC= 1.07D+03 IAcc=3 IRadAn=         5 AccDes= 0.00D+00
 HarFok:  IExCor=  205 AccDes= 0.00D+00 IRadAn=         5 IDoV=-2
 ScaDFX=  1.000000  1.000000  1.000000  1.000000
 Range of M.O.s used for correlation:     6    28
 NBasis=    28 NAE=     9 NBE=     9 NFC=     5 NFV=     0
 NROrb=     23 NOA=     4 NOB=     4 NVA=    19 NVB=    19
 Semi-Direct transformation.
 ModeAB=           4 MOrb=             4 LenV=      33381393
 LASXX=         1917 LTotXX=        1917 LenRXX=        4243
 LTotAB=        2326 MaxLAS=       31740 LenRXY=           0
 NonZer=        6160 LenScr=     1048064 LnRSAI=       31740
 LnScr1=     1048064 LExtra=           0 Total=      2132111
 MaxDsk=          -1 SrtSym=           T ITran=            3
 JobTyp=0 Pass  1:  I=   1 to   4.
 (rs|ai) integrals will be sorted in core.
 Spin components of T(2) and E(2):
     alpha-alpha T2 =       0.6208321957D-02 E2=     -0.1593635120D-01
     alpha-beta  T2 =       0.3962879856D-01 E2=     -0.1094822422D+00
     beta-beta   T2 =       0.6208321957D-02 E2=     -0.1593635120D-01
 ANorm=    0.1025692665D+01
 E2 =    -0.1413549446D+00 EUMP2 =    -0.39860145416377D+03
 R2 and R3 integrals will be kept in memory, NReq=     1009660.
 Iterations=  50 Convergence= 0.100D-06
 Iteration Nr.   1
 **********************
 DD1Dir will call FoFMem   1 times, MxPair=        20
 NAB=    10 NAA=     0 NBB=     0.
 E3=       -0.18801883D-01        EUMP3=      -0.39862025605D+03
 DE(CI)=     -0.15226805     E(CI)=       -398.61236727    
 NORM(A)=   0.10300572D+01
 Iteration Nr.   2
 **********************
 DD1Dir will call FoFMem   1 times, MxPair=        20
 NAB=    10 NAA=     0 NBB=     0.
 DE(CI)=     -0.15445458     E(CI)=       -398.61455380    
 NORM(A)=   0.10308728D+01
 Iteration Nr.   3
 **********************
 DD1Dir will call FoFMem   1 times, MxPair=        20
 NAB=    10 NAA=     0 NBB=     0.
 DE(CI)=     -0.15489144     E(CI)=       -398.61499066    
 NORM(A)=   0.10309349D+01
 Iteration Nr.   4
 **********************
 DD1Dir will call FoFMem   1 times, MxPair=        20
 NAB=    10 NAA=     0 NBB=     0.
 DE(CI)=     -0.15491677     E(CI)=       -398.61501599    
 NORM(A)=   0.10309362D+01
 Iteration Nr.   5
 **********************
 DD1Dir will call FoFMem   1 times, MxPair=        20
 NAB=    10 NAA=     0 NBB=     0.
 DE(CI)=     -0.15491508     E(CI)=       -398.61501430    
 NORM(A)=   0.10309377D+01
 Iteration Nr.   6
 **********************
 DD1Dir will call FoFMem   1 times, MxPair=        20
 NAB=    10 NAA=     0 NBB=     0.
 DE(CI)=     -0.15491550     E(CI)=       -398.61501472    
 NORM(A)=   0.10309378D+01
 Iteration Nr.   7
 **********************
 DD1Dir will call FoFMem   1 times, MxPair=        20
 NAB=    10 NAA=     0 NBB=     0.
 DE(CI)=     -0.15491553     E(CI)=       -398.61501475    
 NORM(A)=   0.10309377D+01
 ***************************************************************
 Largest amplitude= 4.55D-02
 Scan completed.

 Summary of the potential surface scan:
   N       r          SCF          MP2          MP3          CID         CISD    
 ----  ---------  -----------  -----------  -----------  -----------  -----------
    1     3.0000   -398.24794   -398.49487   -398.53805   -398.49992   -398.49992
    2     2.9000   -398.26662   -398.50213   -398.54369   -398.51098   -398.51098
    3     2.8000   -398.28675   -398.51147   -398.55125   -398.52338   -398.52338
    4     2.7000   -398.30842   -398.52303   -398.56093   -398.53734   -398.53734
    5     2.6000   -398.33171   -398.53692   -398.57289   -398.55300   -398.55300
    6     2.5000   -398.35672   -398.55325   -398.58727   -398.57050   -398.57050
    7     2.4000   -398.38351   -398.57207   -398.60418   -398.59000   -398.59000
    8     2.3000   -398.41213   -398.59344   -398.62371   -398.61161   -398.61161
    9     2.2000   -398.44259   -398.61735   -398.64590   -398.63543   -398.63543
   10     2.1000   -398.47482   -398.64372   -398.67068   -398.66146   -398.66146
   11     2.0000   -398.50859   -398.67234   -398.69786   -398.68958   -398.68958
   12     1.9000   -398.54349   -398.70276   -398.72701   -398.71943   -398.71943
   13     1.8000   -398.57885   -398.73427   -398.75744   -398.75036   -398.75036
   14     1.7000   -398.61354   -398.76574   -398.78799   -398.78129   -398.78129
   15     1.6000   -398.64588   -398.79540   -398.81688   -398.81048   -398.81048
   16     1.5000   -398.67313   -398.82046   -398.84131   -398.83516   -398.83516
   17     1.4000   -398.69102   -398.83654   -398.85686   -398.85093   -398.85093
   18     1.3000   -398.69271   -398.83674   -398.85662   -398.85089   -398.85089
   19     1.2000   -398.66750   -398.81032   -398.82980   -398.82425   -398.82425
   20     1.1000   -398.59865   -398.74055   -398.75967   -398.75429   -398.75429
   21     1.0000   -398.46010   -398.60145   -398.62026   -398.61501   -398.61501
 ----  ---------  -----------  -----------  -----------  -----------  -----------
  
 1|1|UNPC-RO-PC|Scan|RCID-FC|CC-pVDZ|H2S1|RO|02-Jul-2017|1||# cid/cc-pV
 DZ scan guess=mix||Disociacion simetrica CID cc-pVDZ de H2S||0,1|S|H,1
 ,r|H,1,r,2,aHSH||r=3.,s,20,-0.1|aHSH=92.11||Version=IA32W-G09RevB.01|H
 F=-398.247937,-398.2666156,-398.2867458,-398.3084152,-398.3317119,-398
 .3567192,-398.3835095,-398.4121328,-398.4425944,-398.4748167,-398.5085
 875,-398.5434946,-398.5788452,-398.6135436,-398.6458754,-398.6731342,-
 398.6910197,-398.6927147,-398.667499,-398.5986487,-398.4600992|MP2=-39
 8.4948702,-398.502133,-398.5114656,-398.5230276,-398.5369246,-398.5532
 465,-398.5720675,-398.5934354,-398.6173494,-398.6437238,-398.6723352,-
 398.7027566,-398.7342714,-398.7657445,-398.795402,-398.8204611,-398.83
 65383,-398.8367447,-398.8103199,-398.7405502,-398.6014542|MP3=-398.538
 0529,-398.5436907,-398.5512484,-398.5609282,-398.5728879,-398.5872654,
 -398.6041778,-398.6237109,-398.6458976,-398.6706804,-398.6978574,-398.
 7270146,-398.7574392,-398.787991,-398.8168831,-398.8413114,-398.856864
 9,-398.856624,-398.8298012,-398.7596696,-398.620256|CID=-398.4999174,-
 398.5109756,-398.5233798,-398.5373381,-398.5529973,-398.5705032,-398.5
 899981,-398.6116109,-398.6354301,-398.661463,-398.6895766,-398.7194252
 ,-398.7503592,-398.7812928,-398.8104829,-398.8351581,-398.8509293,-398
 .8508887,-398.8242522,-398.7542886,-398.6150148|RMSD=1.492e-009,6.069e
 -009,3.303e-009,2.473e-009,2.026e-009,1.749e-009,1.558e-009,1.403e-009
 ,1.254e-009,1.106e-009,8.965e-009,8.517e-009,8.532e-009,8.735e-009,8.7
 33e-009,7.504e-009,4.566e-009,3.181e-009,2.808e-009,2.103e-009,3.312e-
 009|PG=C02V [C2(S1),SGV(H2)]||@


 Human beings, who are almost unique in having the
 ability to learn from the experience of others, are
 also remarkable for their apparent disinclination to do so.
                               -- Douglas Adams,
                                Last Chance to See
 Job cpu time:  0 days  0 hours  1 minutes  4.0 seconds.
 File lengths (MBytes):  RWF=     22 Int=      0 D2E=      0 Chk=      1 Scr=      1
 Normal termination of Gaussian 09 at Sun Jul 02 16:47:28 2017.
