 Entering Link 1 = C:\G03W\l1.exe PID=      3628.
  
 Copyright (c) 1988,1990,1992,1993,1995,1998,2003, Gaussian, Inc.
                  All Rights Reserved.
  
 This is the Gaussian(R) 03 program.  It is based on the
 the Gaussian(R) 98 system (copyright 1998, Gaussian, Inc.),
 the Gaussian(R) 94 system (copyright 1995, Gaussian, Inc.),
 the Gaussian 92(TM) system (copyright 1992, Gaussian, Inc.),
 the Gaussian 90(TM) system (copyright 1990, Gaussian, Inc.),
 the Gaussian 88(TM) system (copyright 1988, Gaussian, Inc.),
 the Gaussian 86(TM) system (copyright 1986, Carnegie Mellon
 University), and the Gaussian 82(TM) system (copyright 1983,
 Carnegie Mellon University). Gaussian is a federally registered
 trademark of Gaussian, Inc.
  
 This software contains proprietary and confidential information,
 including trade secrets, belonging to Gaussian, Inc.
  
 This software is provided under written license and may be
 used, copied, transmitted, or stored only in accord with that
 written license.
  
 The following legend is applicable only to US Government
 contracts under DFARS:
  
                    RESTRICTED RIGHTS LEGEND
  
 Use, duplication or disclosure by the US Government is subject
 to restrictions as set forth in subparagraph (c)(1)(ii) of the
 Rights in Technical Data and Computer Software clause at DFARS
 252.227-7013.
  
 Gaussian, Inc.
 Carnegie Office Park, Building 6, Pittsburgh, PA 15106 USA
  
 The following legend is applicable only to US Government
 contracts under FAR:
  
                    RESTRICTED RIGHTS LEGEND
  
 Use, reproduction and disclosure by the US Government is subject
 to restrictions as set forth in subparagraph (c) of the
 Commercial Computer Software - Restricted Rights clause at FAR
 52.227-19.
  
 Gaussian, Inc.
 Carnegie Office Park, Building 6, Pittsburgh, PA 15106 USA
  
  
 ---------------------------------------------------------------
 Warning -- This program may not be used in any manner that
 competes with the business of Gaussian, Inc. or will provide
 assistance to any competitor of Gaussian, Inc.  The licensee
 of this program is prohibited from giving any competitor of
 Gaussian, Inc. access to this program.  By using this program,
 the user acknowledges that Gaussian, Inc. is engaged in the
 business of creating and licensing software in the field of
 computational chemistry and represents and warrants to the
 licensee that it is not a competitor of Gaussian, Inc. and that
 it will not use this program in any manner prohibited above.
 ---------------------------------------------------------------
  

 Cite this work as:
 Gaussian 03, Revision B.03,
 M. J. Frisch, G. W. Trucks, H. B. Schlegel, G. E. Scuseria, 
 M. A. Robb, J. R. Cheeseman, J. A. Montgomery, Jr., T. Vreven, 
 K. N. Kudin, J. C. Burant, J. M. Millam, S. S. Iyengar, J. Tomasi, 
 V. Barone, B. Mennucci, M. Cossi, G. Scalmani, N. Rega, 
 G. A. Petersson, H. Nakatsuji, M. Hada, M. Ehara, K. Toyota, 
 R. Fukuda, J. Hasegawa, M. Ishida, T. Nakajima, Y. Honda, O. Kitao, 
 H. Nakai, M. Klene, X. Li, J. E. Knox, H. P. Hratchian, J. B. Cross, 
 C. Adamo, J. Jaramillo, R. Gomperts, R. E. Stratmann, O. Yazyev, 
 A. J. Austin, R. Cammi, C. Pomelli, J. W. Ochterski, P. Y. Ayala, 
 K. Morokuma, G. A. Voth, P. Salvador, J. J. Dannenberg, 
 V. G. Zakrzewski, S. Dapprich, A. D. Daniels, M. C. Strain, 
 O. Farkas, D. K. Malick, A. D. Rabuck, K. Raghavachari, 
 J. B. Foresman, J. V. Ortiz, Q. Cui, A. G. Baboul, S. Clifford, 
 J. Cioslowski, B. B. Stefanov, G. Liu, A. Liashenko, P. Piskorz, 
 I. Komaromi, R. L. Martin, D. J. Fox, T. Keith, M. A. Al-Laham, 
 C. Y. Peng, A. Nanayakkara, M. Challacombe, P. M. W. Gill, 
 B. Johnson, W. Chen, M. W. Wong, C. Gonzalez, and J. A. Pople, 
 Gaussian, Inc., Pittsburgh PA, 2003.
 
 *********************************************
 Gaussian 03:  x86-Win32-G03RevB.03 4-May-2003
                  14-Jun-2017 
 *********************************************
 %Chk=H2S-RHF-SINGLETE-OPT-GEOM-6-31G-GUESS
 Default route:  MaxDisk=2000MB
 ------------------------------------
 # uhf/6-31G(d',p') pop=full opt freq
 ------------------------------------
 1/18=20,38=1/1,3;
 2/9=110,17=6,18=5,40=1/2;
 3/5=11,6=6,7=101,11=2,16=1,25=1,30=1/1,2,3;
 4/7=2/1;
 5/5=2,38=5/2;
 6/7=3,28=1/1;
 7//1,2,3,16;
 1/18=20/3(1);
 99//99;
 2/9=110/2;
 3/5=11,6=6,7=101,11=2,16=1,25=1,30=1/1,2,3;
 4/5=5,7=2,16=3/1;
 5/5=2,38=5/2;
 7//1,2,3,16;
 1/18=20/3(-5);
 2/9=110/2;
 6/7=3,19=2,28=1/1;
 99/9=1/99;
 -------------------------------------------------------------------
 Optimizacion geometria con prueba inicial H2S Singlete RHF en 6-31G
 -------------------------------------------------------------------
 Symbolic Z-matrix:
 Charge =  0 Multiplicity = 1
 S1                    0.        0.        0. 
 H1                    0.        1.       -1. 
 H2                    0.       -1.       -1. 
 

 GradGradGradGradGradGradGradGradGradGradGradGradGradGradGradGradGradGrad
 Berny optimization.
 Initialization pass.
                           ----------------------------
                           !    Initial Parameters    !
                           ! (Angstroms and Degrees)  !
 --------------------------                            --------------------------
 ! Name  Definition              Value          Derivative Info.                !
 --------------------------------------------------------------------------------
 ! R1    R(1,2)                  1.4142         estimate D2E/DX2                !
 ! R2    R(1,3)                  1.4142         estimate D2E/DX2                !
 ! A1    A(2,1,3)               90.0            estimate D2E/DX2                !
 --------------------------------------------------------------------------------
 Trust Radius=3.00D-01 FncErr=1.00D-07 GrdErr=1.00D-07
 Number of steps in this run=  20 maximum allowed number of steps= 100.
 GradGradGradGradGradGradGradGradGradGradGradGradGradGradGradGradGradGrad

                          Input orientation:                          
 ---------------------------------------------------------------------
 Center     Atomic     Atomic              Coordinates (Angstroms)
 Number     Number      Type              X           Y           Z
 ---------------------------------------------------------------------
    1         16             0        0.000000    0.000000    0.000000
    2          1             0        0.000000    1.000000   -1.000000
    3          1             0        0.000000   -1.000000   -1.000000
 ---------------------------------------------------------------------
                    Distance matrix (angstroms):
                    1          2          3
     1  S    0.000000
     2  H    1.414214   0.000000
     3  H    1.414214   2.000000   0.000000
 Stoichiometry    H2S
 Framework group  C2V[C2(S),SGV(H2)]
 Deg. of freedom     2
 Full point group                 C2V     NOp   4
 Largest Abelian subgroup         C2V     NOp   4
 Largest concise Abelian subgroup C2      NOp   2
                         Standard orientation:                         
 ---------------------------------------------------------------------
 Center     Atomic     Atomic              Coordinates (Angstroms)
 Number     Number      Type              X           Y           Z
 ---------------------------------------------------------------------
    1         16             0        0.000000    0.000000    0.111111
    2          1             0        0.000000    1.000000   -0.888889
    3          1             0        0.000000   -1.000000   -0.888889
 ---------------------------------------------------------------------
 Rotational constants (GHZ):    266.5344399    250.7275504    129.1947378
 Standard basis: 6-31(d',p') (6D, 7F)
 There are    14 symmetry adapted basis functions of A1  symmetry.
 There are     2 symmetry adapted basis functions of A2  symmetry.
 There are     5 symmetry adapted basis functions of B1  symmetry.
 There are     8 symmetry adapted basis functions of B2  symmetry.
 Integral buffers will be    262144 words long.
 Raffenetti 2 integral format.
 Two-electron integral symmetry is turned on.
    29 basis functions,    66 primitive gaussians,    29 cartesian basis functions
     9 alpha electrons        9 beta electrons
       nuclear repulsion energy        12.2385019622 Hartrees.
 NAtoms=    3 NActive=    3 NUniq=    2 SFac= 2.76D+00 NAtFMM=   60 Big=F
 One-electron integrals computed using PRISM.
 NBasis=    29 RedAO= T  NBF=    14     2     5     8
 NBsUse=    29 1.00D-06 NBFU=    14     2     5     8
 Harris functional with IExCor=  205 diagonalized for initial guess.
 ExpMin= 1.17D-01 ExpMax= 2.19D+04 ExpMxC= 3.30D+03 IAcc=1 IRadAn=         1 AccDes= 1.00D-06
 HarFok:  IExCor= 205 AccDes= 1.00D-06 IRadAn=         1 IDoV=1
 ScaDFX=  1.000000  1.000000  1.000000  1.000000
 Initial guess orbital symmetries:
 Alpha Orbitals:
       Occupied  (A1) (A1) (A1) (B2) (B1) (A1) (B2) (A1) (B1)
       Virtual   (B2) (A1) (B2) (A1) (A1) (B1) (A1) (A2) (B1) (B2)
                 (A1) (A1) (B2) (A2) (B2) (B1) (A1) (A1) (B2) (A1)
 Beta  Orbitals:
       Occupied  (A1) (A1) (A1) (B2) (B1) (A1) (B2) (A1) (B1)
       Virtual   (B2) (A1) (B2) (A1) (A1) (B1) (A1) (A2) (B1) (B2)
                 (A1) (A1) (B2) (A2) (B2) (B1) (A1) (A1) (B2) (A1)
 The electronic state of the initial guess is 1-A1.
 <S**2> of initial guess= 0.0000
 Requested convergence on RMS density matrix=1.00D-08 within 128 cycles.
 Requested convergence on MAX density matrix=1.00D-06.
 Requested convergence on             energy=1.00D-06.
 No special actions if energy rises.
 Keep R1 and R2 integrals in memory in canonical form, NReq=      652907.
 SCF Done:  E(UHF) =  -398.668970942     A.U. after   10 cycles
             Convg  =    0.2018D-08             -V/T =  2.0010
             S**2   =   0.0000
 Annihilation of the first spin contaminant:
 S**2 before annihilation     0.0000,   after     0.0000

 **********************************************************************

            Population analysis using the SCF density.

 **********************************************************************

 Orbital symmetries:
 Alpha Orbitals:
       Occupied  (A1) (A1) (B2) (A1) (B1) (A1) (B2) (A1) (B1)
       Virtual   (B2) (A1) (B2) (A1) (A1) (B1) (A1) (B2) (A2) (B1)
                 (A1) (A1) (B2) (B2) (A2) (B1) (A1) (A1) (B2) (A1)
 Beta  Orbitals:
       Occupied  (A1) (A1) (B2) (A1) (B1) (A1) (B2) (A1) (B1)
       Virtual   (B2) (A1) (B2) (A1) (A1) (B1) (A1) (B2) (A2) (B1)
                 (A1) (A1) (B2) (B2) (A2) (B1) (A1) (A1) (B2) (A1)
 The electronic state is 1-A1.
 Alpha  occ. eigenvalues --  -91.96787  -8.97526  -6.65782  -6.65683  -6.65460
 Alpha  occ. eigenvalues --   -0.96481  -0.56503  -0.49761  -0.38419
 Alpha virt. eigenvalues --    0.15001   0.18734   0.48916   0.50506   0.50936
 Alpha virt. eigenvalues --    0.53482   0.87990   0.89632   0.95046   0.96066
 Alpha virt. eigenvalues --    0.97777   1.23814   1.35687   1.63723   1.65252
 Alpha virt. eigenvalues --    1.73900   1.77032   2.31517   2.41385   4.36637
  Beta  occ. eigenvalues --  -91.96787  -8.97526  -6.65782  -6.65683  -6.65460
  Beta  occ. eigenvalues --   -0.96481  -0.56503  -0.49761  -0.38419
  Beta virt. eigenvalues --    0.15001   0.18734   0.48916   0.50506   0.50936
  Beta virt. eigenvalues --    0.53482   0.87990   0.89632   0.95046   0.96066
  Beta virt. eigenvalues --    0.97777   1.23814   1.35687   1.63723   1.65252
  Beta virt. eigenvalues --    1.73900   1.77032   2.31517   2.41385   4.36637
     Alpha Molecular Orbital Coefficients
                           1         2         3         4         5
                        (A1)--O   (A1)--O   (B2)--O   (A1)--O   (B1)--O
     EIGENVALUES --   -91.96787  -8.97526  -6.65782  -6.65683  -6.65460
   1 1   S  1S          0.99626  -0.28182   0.00000  -0.00188   0.00000
   2        2S          0.01424   1.03039   0.00000   0.00715   0.00000
   3        2PX         0.00000   0.00000   0.00000   0.00000   0.99400
   4        2PY         0.00000   0.00000   0.99305   0.00000   0.00000
   5        2PZ        -0.00008  -0.00573   0.00000   0.99328   0.00000
   6        3S         -0.01993   0.02309   0.00000  -0.00426   0.00000
   7        3PX         0.00000   0.00000   0.00000   0.00000   0.01991
   8        3PY         0.00000   0.00000   0.02328   0.00000   0.00000
   9        3PZ         0.00006  -0.00156   0.00000   0.02241   0.00000
  10        4S          0.00297  -0.00736   0.00000   0.00161   0.00000
  11        4PX         0.00000   0.00000   0.00000   0.00000  -0.00445
  12        4PY         0.00000   0.00000  -0.00592   0.00000   0.00000
  13        4PZ        -0.00036   0.00153   0.00000  -0.00581   0.00000
  14        5XX         0.00687  -0.00141   0.00000   0.00156   0.00000
  15        5YY         0.00692  -0.00066   0.00000   0.00101   0.00000
  16        5ZZ         0.00692  -0.00076   0.00000   0.00010   0.00000
  17        5XY         0.00000   0.00000   0.00000   0.00000   0.00000
  18        5XZ         0.00000   0.00000   0.00000   0.00000  -0.00048
  19        5YZ         0.00000   0.00000  -0.00135   0.00000   0.00000
  20 2   H  1S          0.00016  -0.00044  -0.00093   0.00081   0.00000
  21        2S         -0.00046   0.00146   0.00088  -0.00110   0.00000
  22        3PX         0.00000   0.00000   0.00000   0.00000  -0.00027
  23        3PY         0.00003   0.00039   0.00044  -0.00069   0.00000
  24        3PZ        -0.00002  -0.00038  -0.00077   0.00024   0.00000
  25 3   H  1S          0.00016  -0.00044   0.00093   0.00081   0.00000
  26        2S         -0.00046   0.00146  -0.00088  -0.00110   0.00000
  27        3PX         0.00000   0.00000   0.00000   0.00000  -0.00027
  28        3PY        -0.00003  -0.00039   0.00044   0.00069   0.00000
  29        3PZ        -0.00002  -0.00038   0.00077   0.00024   0.00000
                           6         7         8         9        10
                        (A1)--O   (B2)--O   (A1)--O   (B1)--O   (B2)--V
     EIGENVALUES --    -0.96481  -0.56503  -0.49761  -0.38419   0.15001
   1 1   S  1S          0.06944   0.00000   0.02843   0.00000   0.00000
   2        2S         -0.32187   0.00000  -0.13324   0.00000   0.00000
   3        2PX         0.00000   0.00000   0.00000  -0.25837   0.00000
   4        2PY         0.00000  -0.19458   0.00000   0.00000  -0.14987
   5        2PZ         0.03831   0.00000  -0.21316   0.00000   0.00000
   6        3S          0.64209   0.00000   0.29938   0.00000   0.00000
   7        3PX         0.00000   0.00000   0.00000   0.68880   0.00000
   8        3PY         0.00000   0.49258   0.00000   0.00000   0.39429
   9        3PZ        -0.08461   0.00000   0.54986   0.00000   0.00000
  10        4S          0.25007   0.00000   0.31017   0.00000   0.00000
  11        4PX         0.00000   0.00000   0.00000   0.43636   0.00000
  12        4PY         0.00000   0.11914   0.00000   0.00000   1.04746
  13        4PZ        -0.00629   0.00000   0.20204   0.00000   0.00000
  14        5XX        -0.01291   0.00000   0.03341   0.00000   0.00000
  15        5YY         0.01394   0.00000  -0.01638   0.00000   0.00000
  16        5ZZ         0.01521   0.00000  -0.03086   0.00000   0.00000
  17        5XY         0.00000   0.00000   0.00000   0.00000   0.00000
  18        5XZ         0.00000   0.00000   0.00000  -0.01420   0.00000
  19        5YZ         0.00000  -0.08361   0.00000   0.00000   0.10475
  20 2   H  1S          0.13054   0.23097  -0.16027   0.00000  -0.15090
  21        2S          0.06700   0.26108  -0.20730   0.00000  -0.96785
  22        3PX         0.00000   0.00000   0.00000   0.01861   0.00000
  23        3PY        -0.01327  -0.01345   0.01749   0.00000   0.01038
  24        3PZ         0.01311   0.02226  -0.00468   0.00000   0.00098
  25 3   H  1S          0.13054  -0.23097  -0.16027   0.00000   0.15090
  26        2S          0.06700  -0.26108  -0.20730   0.00000   0.96785
  27        3PX         0.00000   0.00000   0.00000   0.01861   0.00000
  28        3PY         0.01327  -0.01345  -0.01749   0.00000   0.01038
  29        3PZ         0.01311  -0.02226  -0.00468   0.00000  -0.00098
                          11        12        13        14        15
                        (A1)--V   (B2)--V   (A1)--V   (A1)--V   (B1)--V
     EIGENVALUES --     0.18734   0.48916   0.50506   0.50936   0.53482
   1 1   S  1S         -0.03279   0.00000  -0.06128  -0.00722   0.00000
   2        2S          0.14989   0.00000   0.02194   0.04214   0.00000
   3        2PX         0.00000   0.00000   0.00000   0.00000   0.29179
   4        2PY         0.00000   0.26134   0.00000   0.00000   0.00000
   5        2PZ        -0.12765   0.00000   0.03482   0.26497   0.00000
   6        3S         -0.37077   0.00000  -1.53639  -0.06296   0.00000
   7        3PX         0.00000   0.00000   0.00000   0.00000  -1.18936
   8        3PY         0.00000  -1.06546   0.00000   0.00000   0.00000
   9        3PZ         0.35441   0.00000  -0.08991  -1.09342   0.00000
  10        4S         -1.13542   0.00000   2.94576  -0.34440   0.00000
  11        4PX         0.00000   0.00000   0.00000   0.00000   1.24017
  12        4PY         0.00000   1.21522   0.00000   0.00000   0.00000
  13        4PZ         1.11839   0.00000  -0.85817   1.49961   0.00000
  14        5XX        -0.06355   0.00000   0.07877  -0.08945   0.00000
  15        5YY         0.03138   0.00000  -0.18082   0.03834   0.00000
  16        5ZZ         0.01377   0.00000  -0.15170   0.05116   0.00000
  17        5XY         0.00000   0.00000   0.00000   0.00000   0.00000
  18        5XZ         0.00000   0.00000   0.00000   0.00000   0.01547
  19        5YZ         0.00000   0.11358   0.00000   0.00000   0.00000
  20 2   H  1S          0.08813  -0.14640  -0.13388   0.11714   0.00000
  21        2S          1.26712   0.04316  -0.91127   0.27356   0.00000
  22        3PX         0.00000   0.00000   0.00000   0.00000  -0.01518
  23        3PY         0.00329   0.04414   0.03776  -0.05116   0.00000
  24        3PZ         0.00204  -0.05442  -0.05007   0.04110   0.00000
  25 3   H  1S          0.08813   0.14640  -0.13388   0.11714   0.00000
  26        2S          1.26712  -0.04316  -0.91127   0.27356   0.00000
  27        3PX         0.00000   0.00000   0.00000   0.00000  -0.01518
  28        3PY        -0.00329   0.04414  -0.03776   0.05116   0.00000
  29        3PZ         0.00204   0.05442  -0.05007   0.04110   0.00000
                          16        17        18        19        20
                        (A1)--V   (B2)--V   (A2)--V   (B1)--V   (A1)--V
     EIGENVALUES --     0.87990   0.89632   0.95046   0.96066   0.97777
   1 1   S  1S         -0.00732   0.00000   0.00000   0.00000  -0.02891
   2        2S          0.00678   0.00000   0.00000   0.00000   0.03510
   3        2PX         0.00000   0.00000   0.00000  -0.02022   0.00000
   4        2PY         0.00000  -0.14877   0.00000   0.00000   0.00000
   5        2PZ        -0.00899   0.00000   0.00000   0.00000  -0.12241
   6        3S         -0.18300   0.00000   0.00000   0.00000  -0.69830
   7        3PX         0.00000   0.00000   0.00000   0.06081   0.00000
   8        3PY         0.00000   0.55949   0.00000   0.00000   0.00000
   9        3PZ         0.04338   0.00000   0.00000   0.00000   0.44175
  10        4S          0.52180   0.00000   0.00000   0.00000   1.97374
  11        4PX         0.00000   0.00000   0.00000   0.05687   0.00000
  12        4PY         0.00000  -1.09963   0.00000   0.00000   0.00000
  13        4PZ        -0.34699   0.00000   0.00000   0.00000  -1.14522
  14        5XX        -0.03398   0.00000   0.00000   0.00000  -0.54123
  15        5YY         0.70701   0.00000   0.00000   0.00000   0.13795
  16        5ZZ        -0.67224   0.00000   0.00000   0.00000   0.41168
  17        5XY         0.00000   0.00000   0.87832   0.00000   0.00000
  18        5XZ         0.00000   0.00000   0.00000   0.89255   0.00000
  19        5YZ         0.00000   0.57055   0.00000   0.00000   0.00000
  20 2   H  1S          0.14874  -0.58632   0.00000   0.00000   0.67060
  21        2S         -0.37751   1.25364   0.00000   0.00000  -1.48948
  22        3PX         0.00000   0.00000   0.24012  -0.22440   0.00000
  23        3PY         0.20766   0.05914   0.00000   0.00000  -0.00852
  24        3PZ         0.19387  -0.01784   0.00000   0.00000  -0.02770
  25 3   H  1S          0.14874   0.58632   0.00000   0.00000   0.67060
  26        2S         -0.37751  -1.25364   0.00000   0.00000  -1.48948
  27        3PX         0.00000   0.00000  -0.24012  -0.22440   0.00000
  28        3PY        -0.20766   0.05914   0.00000   0.00000   0.00852
  29        3PZ         0.19387   0.01784   0.00000   0.00000  -0.02770
                          21        22        23        24        25
                        (A1)--V   (B2)--V   (B2)--V   (A2)--V   (B1)--V
     EIGENVALUES --     1.23814   1.35687   1.63723   1.65252   1.73900
   1 1   S  1S          0.00059   0.00000   0.00000   0.00000   0.00000
   2        2S          0.03984   0.00000   0.00000   0.00000   0.00000
   3        2PX         0.00000   0.00000   0.00000   0.00000   0.02985
   4        2PY         0.00000   0.01020   0.02091   0.00000   0.00000
   5        2PZ        -0.01388   0.00000   0.00000   0.00000   0.00000
   6        3S          0.09245   0.00000   0.00000   0.00000   0.00000
   7        3PX         0.00000   0.00000   0.00000   0.00000  -0.07114
   8        3PY         0.00000   0.04127  -0.01175   0.00000   0.00000
   9        3PZ        -0.03139   0.00000   0.00000   0.00000   0.00000
  10        4S         -0.12201   0.00000   0.00000   0.00000   0.00000
  11        4PX         0.00000   0.00000   0.00000   0.00000  -0.23247
  12        4PY         0.00000   0.17684  -0.16605   0.00000   0.00000
  13        4PZ         0.12287   0.00000   0.00000   0.00000   0.00000
  14        5XX         0.81913   0.00000   0.00000   0.00000   0.00000
  15        5YY        -0.44186   0.00000   0.00000   0.00000   0.00000
  16        5ZZ        -0.20406   0.00000   0.00000   0.00000   0.00000
  17        5XY         0.00000   0.00000   0.00000  -0.51624   0.00000
  18        5XZ         0.00000   0.00000   0.00000   0.00000   0.49343
  19        5YZ         0.00000   0.63461   0.10699   0.00000   0.00000
  20 2   H  1S          0.61521   0.71073   0.24010   0.00000   0.00000
  21        2S         -0.33897  -0.68663  -0.18770   0.00000   0.00000
  22        3PX         0.00000   0.00000   0.00000   0.68101   0.71166
  23        3PY         0.15120   0.02071   0.57687   0.00000   0.00000
  24        3PZ        -0.07270  -0.27740   0.42128   0.00000   0.00000
  25 3   H  1S          0.61521  -0.71073  -0.24010   0.00000   0.00000
  26        2S         -0.33897   0.68663   0.18770   0.00000   0.00000
  27        3PX         0.00000   0.00000   0.00000  -0.68101   0.71166
  28        3PY        -0.15120   0.02071   0.57687   0.00000   0.00000
  29        3PZ        -0.07270   0.27740  -0.42128   0.00000   0.00000
                          26        27        28        29
                        (A1)--V   (A1)--V   (B2)--V   (A1)--V
     EIGENVALUES --     1.77032   2.31517   2.41385   4.36637
   1 1   S  1S         -0.00353   0.02859   0.00000   0.16708
   2        2S         -0.00280  -0.15365   0.00000  -0.76220
   3        2PX         0.00000   0.00000   0.00000   0.00000
   4        2PY         0.00000   0.00000   0.16203   0.00000
   5        2PZ         0.00603   0.16107   0.00000  -0.03147
   6        3S         -0.09165   0.40649   0.00000   6.43017
   7        3PX         0.00000   0.00000   0.00000   0.00000
   8        3PY         0.00000   0.00000  -0.76465   0.00000
   9        3PZ         0.03918  -0.75135   0.00000   0.15592
  10        4S          0.15634   1.05110   0.00000  -0.37980
  11        4PX         0.00000   0.00000   0.00000   0.00000
  12        4PY         0.00000   0.00000  -0.26369   0.00000
  13        4PZ        -0.28286  -0.45192   0.00000   0.00913
  14        5XX        -0.05665  -0.60317   0.00000  -2.66473
  15        5YY        -0.54880   0.21637   0.00000  -2.79589
  16        5ZZ         0.54286   0.33998   0.00000  -2.80352
  17        5XY         0.00000   0.00000   0.00000   0.00000
  18        5XZ         0.00000   0.00000   0.00000   0.00000
  19        5YZ         0.00000   0.00000   0.92735   0.00000
  20 2   H  1S         -0.11857  -0.16040   0.17341   0.05250
  21        2S         -0.00600  -0.75256   0.55560   0.05335
  22        3PX         0.00000   0.00000   0.00000   0.00000
  23        3PY         0.40269   0.74113  -0.61191  -0.14713
  24        3PZ         0.55487  -0.58563   0.71908   0.13463
  25 3   H  1S         -0.11857  -0.16040  -0.17341   0.05250
  26        2S         -0.00600  -0.75256  -0.55560   0.05335
  27        3PX         0.00000   0.00000   0.00000   0.00000
  28        3PY        -0.40269  -0.74113  -0.61191   0.14713
  29        3PZ         0.55487  -0.58563  -0.71908   0.13463
     Beta Molecular Orbital Coefficients.
                           1         2         3         4         5
                        (A1)--O   (A1)--O   (B2)--O   (A1)--O   (B1)--O
     EIGENVALUES --   -91.96787  -8.97526  -6.65782  -6.65683  -6.65460
   1 1   S  1S          0.99626  -0.28182   0.00000  -0.00188   0.00000
   2        2S          0.01424   1.03039   0.00000   0.00715   0.00000
   3        2PX         0.00000   0.00000   0.00000   0.00000   0.99400
   4        2PY         0.00000   0.00000   0.99305   0.00000   0.00000
   5        2PZ        -0.00008  -0.00573   0.00000   0.99328   0.00000
   6        3S         -0.01993   0.02309   0.00000  -0.00426   0.00000
   7        3PX         0.00000   0.00000   0.00000   0.00000   0.01991
   8        3PY         0.00000   0.00000   0.02328   0.00000   0.00000
   9        3PZ         0.00006  -0.00156   0.00000   0.02241   0.00000
  10        4S          0.00297  -0.00736   0.00000   0.00161   0.00000
  11        4PX         0.00000   0.00000   0.00000   0.00000  -0.00445
  12        4PY         0.00000   0.00000  -0.00592   0.00000   0.00000
  13        4PZ        -0.00036   0.00153   0.00000  -0.00581   0.00000
  14        5XX         0.00687  -0.00141   0.00000   0.00156   0.00000
  15        5YY         0.00692  -0.00066   0.00000   0.00101   0.00000
  16        5ZZ         0.00692  -0.00076   0.00000   0.00010   0.00000
  17        5XY         0.00000   0.00000   0.00000   0.00000   0.00000
  18        5XZ         0.00000   0.00000   0.00000   0.00000  -0.00048
  19        5YZ         0.00000   0.00000  -0.00135   0.00000   0.00000
  20 2   H  1S          0.00016  -0.00044  -0.00093   0.00081   0.00000
  21        2S         -0.00046   0.00146   0.00088  -0.00110   0.00000
  22        3PX         0.00000   0.00000   0.00000   0.00000  -0.00027
  23        3PY         0.00003   0.00039   0.00044  -0.00069   0.00000
  24        3PZ        -0.00002  -0.00038  -0.00077   0.00024   0.00000
  25 3   H  1S          0.00016  -0.00044   0.00093   0.00081   0.00000
  26        2S         -0.00046   0.00146  -0.00088  -0.00110   0.00000
  27        3PX         0.00000   0.00000   0.00000   0.00000  -0.00027
  28        3PY        -0.00003  -0.00039   0.00044   0.00069   0.00000
  29        3PZ        -0.00002  -0.00038   0.00077   0.00024   0.00000
                           6         7         8         9        10
                        (A1)--O   (B2)--O   (A1)--O   (B1)--O   (B2)--V
     EIGENVALUES --    -0.96481  -0.56503  -0.49761  -0.38419   0.15001
   1 1   S  1S          0.06944   0.00000   0.02843   0.00000   0.00000
   2        2S         -0.32187   0.00000  -0.13324   0.00000   0.00000
   3        2PX         0.00000   0.00000   0.00000  -0.25837   0.00000
   4        2PY         0.00000  -0.19458   0.00000   0.00000  -0.14987
   5        2PZ         0.03831   0.00000  -0.21316   0.00000   0.00000
   6        3S          0.64209   0.00000   0.29938   0.00000   0.00000
   7        3PX         0.00000   0.00000   0.00000   0.68880   0.00000
   8        3PY         0.00000   0.49258   0.00000   0.00000   0.39429
   9        3PZ        -0.08461   0.00000   0.54986   0.00000   0.00000
  10        4S          0.25007   0.00000   0.31017   0.00000   0.00000
  11        4PX         0.00000   0.00000   0.00000   0.43636   0.00000
  12        4PY         0.00000   0.11914   0.00000   0.00000   1.04746
  13        4PZ        -0.00629   0.00000   0.20204   0.00000   0.00000
  14        5XX        -0.01291   0.00000   0.03341   0.00000   0.00000
  15        5YY         0.01394   0.00000  -0.01638   0.00000   0.00000
  16        5ZZ         0.01521   0.00000  -0.03086   0.00000   0.00000
  17        5XY         0.00000   0.00000   0.00000   0.00000   0.00000
  18        5XZ         0.00000   0.00000   0.00000  -0.01420   0.00000
  19        5YZ         0.00000  -0.08361   0.00000   0.00000   0.10475
  20 2   H  1S          0.13054   0.23097  -0.16027   0.00000  -0.15090
  21        2S          0.06700   0.26108  -0.20730   0.00000  -0.96785
  22        3PX         0.00000   0.00000   0.00000   0.01861   0.00000
  23        3PY        -0.01327  -0.01345   0.01749   0.00000   0.01038
  24        3PZ         0.01311   0.02226  -0.00468   0.00000   0.00098
  25 3   H  1S          0.13054  -0.23097  -0.16027   0.00000   0.15090
  26        2S          0.06700  -0.26108  -0.20730   0.00000   0.96785
  27        3PX         0.00000   0.00000   0.00000   0.01861   0.00000
  28        3PY         0.01327  -0.01345  -0.01749   0.00000   0.01038
  29        3PZ         0.01311  -0.02226  -0.00468   0.00000  -0.00098
                          11        12        13        14        15
                        (A1)--V   (B2)--V   (A1)--V   (A1)--V   (B1)--V
     EIGENVALUES --     0.18734   0.48916   0.50506   0.50936   0.53482
   1 1   S  1S         -0.03279   0.00000  -0.06128  -0.00722   0.00000
   2        2S          0.14989   0.00000   0.02194   0.04214   0.00000
   3        2PX         0.00000   0.00000   0.00000   0.00000   0.29179
   4        2PY         0.00000   0.26134   0.00000   0.00000   0.00000
   5        2PZ        -0.12765   0.00000   0.03482   0.26497   0.00000
   6        3S         -0.37077   0.00000  -1.53639  -0.06296   0.00000
   7        3PX         0.00000   0.00000   0.00000   0.00000  -1.18936
   8        3PY         0.00000  -1.06546   0.00000   0.00000   0.00000
   9        3PZ         0.35441   0.00000  -0.08991  -1.09342   0.00000
  10        4S         -1.13542   0.00000   2.94576  -0.34440   0.00000
  11        4PX         0.00000   0.00000   0.00000   0.00000   1.24017
  12        4PY         0.00000   1.21522   0.00000   0.00000   0.00000
  13        4PZ         1.11839   0.00000  -0.85817   1.49961   0.00000
  14        5XX        -0.06355   0.00000   0.07877  -0.08945   0.00000
  15        5YY         0.03138   0.00000  -0.18082   0.03834   0.00000
  16        5ZZ         0.01377   0.00000  -0.15170   0.05116   0.00000
  17        5XY         0.00000   0.00000   0.00000   0.00000   0.00000
  18        5XZ         0.00000   0.00000   0.00000   0.00000   0.01547
  19        5YZ         0.00000   0.11358   0.00000   0.00000   0.00000
  20 2   H  1S          0.08813  -0.14640  -0.13388   0.11714   0.00000
  21        2S          1.26712   0.04316  -0.91127   0.27356   0.00000
  22        3PX         0.00000   0.00000   0.00000   0.00000  -0.01518
  23        3PY         0.00329   0.04414   0.03776  -0.05116   0.00000
  24        3PZ         0.00204  -0.05442  -0.05007   0.04110   0.00000
  25 3   H  1S          0.08813   0.14640  -0.13388   0.11714   0.00000
  26        2S          1.26712  -0.04316  -0.91127   0.27356   0.00000
  27        3PX         0.00000   0.00000   0.00000   0.00000  -0.01518
  28        3PY        -0.00329   0.04414  -0.03776   0.05116   0.00000
  29        3PZ         0.00204   0.05442  -0.05007   0.04110   0.00000
                          16        17        18        19        20
                        (A1)--V   (B2)--V   (A2)--V   (B1)--V   (A1)--V
     EIGENVALUES --     0.87990   0.89632   0.95046   0.96066   0.97777
   1 1   S  1S         -0.00732   0.00000   0.00000   0.00000  -0.02891
   2        2S          0.00678   0.00000   0.00000   0.00000   0.03510
   3        2PX         0.00000   0.00000   0.00000  -0.02022   0.00000
   4        2PY         0.00000  -0.14877   0.00000   0.00000   0.00000
   5        2PZ        -0.00899   0.00000   0.00000   0.00000  -0.12241
   6        3S         -0.18300   0.00000   0.00000   0.00000  -0.69830
   7        3PX         0.00000   0.00000   0.00000   0.06081   0.00000
   8        3PY         0.00000   0.55949   0.00000   0.00000   0.00000
   9        3PZ         0.04338   0.00000   0.00000   0.00000   0.44175
  10        4S          0.52180   0.00000   0.00000   0.00000   1.97374
  11        4PX         0.00000   0.00000   0.00000   0.05687   0.00000
  12        4PY         0.00000  -1.09963   0.00000   0.00000   0.00000
  13        4PZ        -0.34699   0.00000   0.00000   0.00000  -1.14522
  14        5XX        -0.03398   0.00000   0.00000   0.00000  -0.54123
  15        5YY         0.70701   0.00000   0.00000   0.00000   0.13795
  16        5ZZ        -0.67224   0.00000   0.00000   0.00000   0.41168
  17        5XY         0.00000   0.00000   0.87832   0.00000   0.00000
  18        5XZ         0.00000   0.00000   0.00000   0.89255   0.00000
  19        5YZ         0.00000   0.57055   0.00000   0.00000   0.00000
  20 2   H  1S          0.14874  -0.58632   0.00000   0.00000   0.67060
  21        2S         -0.37751   1.25364   0.00000   0.00000  -1.48948
  22        3PX         0.00000   0.00000   0.24012  -0.22440   0.00000
  23        3PY         0.20766   0.05914   0.00000   0.00000  -0.00852
  24        3PZ         0.19387  -0.01784   0.00000   0.00000  -0.02770
  25 3   H  1S          0.14874   0.58632   0.00000   0.00000   0.67060
  26        2S         -0.37751  -1.25364   0.00000   0.00000  -1.48948
  27        3PX         0.00000   0.00000  -0.24012  -0.22440   0.00000
  28        3PY        -0.20766   0.05914   0.00000   0.00000   0.00852
  29        3PZ         0.19387   0.01784   0.00000   0.00000  -0.02770
                          21        22        23        24        25
                        (A1)--V   (B2)--V   (B2)--V   (A2)--V   (B1)--V
     EIGENVALUES --     1.23814   1.35687   1.63723   1.65252   1.73900
   1 1   S  1S          0.00059   0.00000   0.00000   0.00000   0.00000
   2        2S          0.03984   0.00000   0.00000   0.00000   0.00000
   3        2PX         0.00000   0.00000   0.00000   0.00000   0.02985
   4        2PY         0.00000   0.01020   0.02091   0.00000   0.00000
   5        2PZ        -0.01388   0.00000   0.00000   0.00000   0.00000
   6        3S          0.09245   0.00000   0.00000   0.00000   0.00000
   7        3PX         0.00000   0.00000   0.00000   0.00000  -0.07114
   8        3PY         0.00000   0.04127  -0.01175   0.00000   0.00000
   9        3PZ        -0.03139   0.00000   0.00000   0.00000   0.00000
  10        4S         -0.12201   0.00000   0.00000   0.00000   0.00000
  11        4PX         0.00000   0.00000   0.00000   0.00000  -0.23247
  12        4PY         0.00000   0.17684  -0.16605   0.00000   0.00000
  13        4PZ         0.12287   0.00000   0.00000   0.00000   0.00000
  14        5XX         0.81913   0.00000   0.00000   0.00000   0.00000
  15        5YY        -0.44186   0.00000   0.00000   0.00000   0.00000
  16        5ZZ        -0.20406   0.00000   0.00000   0.00000   0.00000
  17        5XY         0.00000   0.00000   0.00000  -0.51624   0.00000
  18        5XZ         0.00000   0.00000   0.00000   0.00000   0.49343
  19        5YZ         0.00000   0.63461   0.10699   0.00000   0.00000
  20 2   H  1S          0.61521   0.71073   0.24010   0.00000   0.00000
  21        2S         -0.33897  -0.68663  -0.18770   0.00000   0.00000
  22        3PX         0.00000   0.00000   0.00000   0.68101   0.71166
  23        3PY         0.15120   0.02071   0.57687   0.00000   0.00000
  24        3PZ        -0.07270  -0.27740   0.42128   0.00000   0.00000
  25 3   H  1S          0.61521  -0.71073  -0.24010   0.00000   0.00000
  26        2S         -0.33897   0.68663   0.18770   0.00000   0.00000
  27        3PX         0.00000   0.00000   0.00000  -0.68101   0.71166
  28        3PY        -0.15120   0.02071   0.57687   0.00000   0.00000
  29        3PZ        -0.07270   0.27740  -0.42128   0.00000   0.00000
                          26        27        28        29
                        (A1)--V   (A1)--V   (B2)--V   (A1)--V
     EIGENVALUES --     1.77032   2.31517   2.41385   4.36637
   1 1   S  1S         -0.00353   0.02859   0.00000   0.16708
   2        2S         -0.00280  -0.15365   0.00000  -0.76220
   3        2PX         0.00000   0.00000   0.00000   0.00000
   4        2PY         0.00000   0.00000   0.16203   0.00000
   5        2PZ         0.00603   0.16107   0.00000  -0.03147
   6        3S         -0.09165   0.40649   0.00000   6.43017
   7        3PX         0.00000   0.00000   0.00000   0.00000
   8        3PY         0.00000   0.00000  -0.76465   0.00000
   9        3PZ         0.03918  -0.75135   0.00000   0.15592
  10        4S          0.15634   1.05110   0.00000  -0.37980
  11        4PX         0.00000   0.00000   0.00000   0.00000
  12        4PY         0.00000   0.00000  -0.26369   0.00000
  13        4PZ        -0.28286  -0.45192   0.00000   0.00913
  14        5XX        -0.05665  -0.60317   0.00000  -2.66473
  15        5YY        -0.54880   0.21637   0.00000  -2.79589
  16        5ZZ         0.54286   0.33998   0.00000  -2.80352
  17        5XY         0.00000   0.00000   0.00000   0.00000
  18        5XZ         0.00000   0.00000   0.00000   0.00000
  19        5YZ         0.00000   0.00000   0.92735   0.00000
  20 2   H  1S         -0.11857  -0.16040   0.17341   0.05250
  21        2S         -0.00600  -0.75256   0.55560   0.05335
  22        3PX         0.00000   0.00000   0.00000   0.00000
  23        3PY         0.40269   0.74113  -0.61191  -0.14713
  24        3PZ         0.55487  -0.58563   0.71908   0.13463
  25 3   H  1S         -0.11857  -0.16040  -0.17341   0.05250
  26        2S         -0.00600  -0.75256  -0.55560   0.05335
  27        3PX         0.00000   0.00000   0.00000   0.00000
  28        3PY        -0.40269  -0.74113  -0.61191   0.14713
  29        3PZ         0.55487  -0.58563  -0.71908   0.13463
     ALPHA DENSITY MATRIX.
                           1         2         3         4         5
   1 1   S  1S          1.07759
   2        2S         -0.30235   1.18330
   3        2PX         0.00000   0.00000   1.05479
   4        2PY         0.00000   0.00000   0.00000   1.02401
   5        2PZ        -0.00373   0.01727   0.00000   0.00000   1.03353
   6        3S          0.02674  -0.22308   0.00000   0.00000  -0.04358
   7        3PX         0.00000   0.00000  -0.15818   0.00000   0.00000
   8        3PY         0.00000   0.00000   0.00000  -0.07273   0.00000
   9        3PZ         0.01021  -0.04747   0.00000   0.00000  -0.09818
  10        4S          0.03121  -0.12935   0.00000   0.00000  -0.05490
  11        4PX         0.00000   0.00000  -0.11716   0.00000   0.00000
  12        4PY         0.00000   0.00000   0.00000  -0.02906   0.00000
  13        4PZ         0.00453  -0.02337   0.00000   0.00000  -0.04909
  14        5XX         0.00729  -0.00164   0.00000   0.00000  -0.00606
  15        5YY         0.00758  -0.00288   0.00000   0.00000   0.00504
  16        5ZZ         0.00729  -0.00147   0.00000   0.00000   0.00727
  17        5XY         0.00000   0.00000   0.00000   0.00000   0.00000
  18        5XZ         0.00000   0.00000   0.00319   0.00000   0.00000
  19        5YZ         0.00000   0.00000   0.00000   0.01493   0.00000
  20 2   H  1S          0.00479  -0.02110   0.00000  -0.04586   0.03996
  21        2S         -0.00211   0.00755   0.00000  -0.04992   0.04566
  22        3PX         0.00000   0.00000  -0.00508   0.00000   0.00000
  23        3PY        -0.00050   0.00234   0.00000   0.00306  -0.00492
  24        3PZ         0.00086  -0.00399   0.00000  -0.00510   0.00174
  25 3   H  1S          0.00479  -0.02110   0.00000   0.04586   0.03996
  26        2S         -0.00211   0.00755   0.00000   0.04992   0.04566
  27        3PX         0.00000   0.00000  -0.00508   0.00000   0.00000
  28        3PY         0.00050  -0.00234   0.00000   0.00306   0.00492
  29        3PZ         0.00086  -0.00399   0.00000   0.00510   0.00174
                           6         7         8         9        10
   6        3S          0.50286
   7        3PX         0.00000   0.47484
   8        3PY         0.00000   0.00000   0.24318
   9        3PZ         0.11016   0.00000   0.00000   0.31001
  10        4S          0.25319   0.00000   0.00000   0.14944   0.15881
  11        4PX         0.00000   0.30047   0.00000   0.00000   0.00000
  12        4PY         0.00000   0.00000   0.05855   0.00000   0.00000
  13        4PZ         0.05651   0.00000   0.00000   0.11149   0.06107
  14        5XX         0.00154   0.00000   0.00000   0.01950   0.00717
  15        5YY         0.00389   0.00000   0.00000  -0.01016  -0.00157
  16        5ZZ         0.00037   0.00000   0.00000  -0.01825  -0.00574
  17        5XY         0.00000   0.00000   0.00000   0.00000   0.00000
  18        5XZ         0.00000  -0.00979   0.00000   0.00000   0.00000
  19        5YZ         0.00000   0.00000  -0.04122   0.00000   0.00000
  20 2   H  1S          0.03582   0.00000   0.11375  -0.09915  -0.01706
  21        2S         -0.01899   0.00000   0.12862  -0.11968  -0.04756
  22        3PX         0.00000   0.01281   0.00000   0.00000   0.00000
  23        3PY        -0.00328   0.00000  -0.00662   0.01072   0.00210
  24        3PZ         0.00700   0.00000   0.01095  -0.00368   0.00183
  25 3   H  1S          0.03582   0.00000  -0.11375  -0.09915  -0.01706
  26        2S         -0.01899   0.00000  -0.12862  -0.11968  -0.04756
  27        3PX         0.00000   0.01281   0.00000   0.00000   0.00000
  28        3PY         0.00328   0.00000  -0.00662  -0.01072  -0.00210
  29        3PZ         0.00700   0.00000  -0.01095  -0.00368   0.00183
                          11        12        13        14        15
  11        4PX         0.19043
  12        4PY         0.00000   0.01423
  13        4PZ         0.00000   0.00000   0.04090
  14        5XX         0.00000   0.00000   0.00682   0.00133
  15        5YY         0.00000   0.00000  -0.00341  -0.00068   0.00051
  16        5ZZ         0.00000   0.00000  -0.00633  -0.00118   0.00077
  17        5XY         0.00000   0.00000   0.00000   0.00000   0.00000
  18        5XZ        -0.00619   0.00000   0.00000   0.00000   0.00000
  19        5YZ         0.00000  -0.00995   0.00000   0.00000   0.00000
  20 2   H  1S          0.00000   0.02752  -0.03321  -0.00704   0.00445
  21        2S          0.00000   0.03110  -0.04230  -0.00780   0.00432
  22        3PX         0.00812   0.00000   0.00000   0.00000   0.00000
  23        3PY         0.00000  -0.00161   0.00362   0.00075  -0.00047
  24        3PZ         0.00000   0.00266  -0.00103  -0.00032   0.00026
  25 3   H  1S          0.00000  -0.02752  -0.03321  -0.00704   0.00445
  26        2S          0.00000  -0.03110  -0.04230  -0.00780   0.00432
  27        3PX         0.00812   0.00000   0.00000   0.00000   0.00000
  28        3PY         0.00000  -0.00161  -0.00362  -0.00075   0.00047
  29        3PZ         0.00000  -0.00266  -0.00103  -0.00032   0.00026
                          16        17        18        19        20
  16        5ZZ         0.00123
  17        5XY         0.00000   0.00000
  18        5XZ         0.00000   0.00000   0.00020
  19        5YZ         0.00000   0.00000   0.00000   0.00699
  20 2   H  1S          0.00693   0.00000   0.00000  -0.01931   0.09608
  21        2S          0.00741   0.00000   0.00000  -0.02183   0.10227
  22        3PX         0.00000   0.00000  -0.00026   0.00000   0.00000
  23        3PY        -0.00074   0.00000   0.00000   0.00112  -0.00764
  24        3PZ         0.00034   0.00000   0.00000  -0.00186   0.00760
  25 3   H  1S          0.00693   0.00000   0.00000   0.01931  -0.01062
  26        2S          0.00741   0.00000   0.00000   0.02183  -0.01833
  27        3PX         0.00000   0.00000  -0.00026   0.00000   0.00000
  28        3PY         0.00074   0.00000   0.00000   0.00112   0.00143
  29        3PZ         0.00034   0.00000   0.00000   0.00186  -0.00268
                          21        22        23        24        25
  21        2S          0.11563
  22        3PX         0.00000   0.00035
  23        3PY        -0.00802   0.00000   0.00066
  24        3PZ         0.00766   0.00000  -0.00056   0.00069
  25 3   H  1S         -0.01833   0.00000  -0.00143  -0.00268   0.09608
  26        2S         -0.02070   0.00000  -0.00100  -0.00396   0.10227
  27        3PX         0.00000   0.00035   0.00000   0.00000   0.00000
  28        3PY         0.00100   0.00000  -0.00030  -0.00004   0.00764
  29        3PZ        -0.00396   0.00000   0.00004  -0.00030   0.00760
                          26        27        28        29
  26        2S          0.11563
  27        3PX         0.00000   0.00035
  28        3PY         0.00802   0.00000   0.00066
  29        3PZ         0.00766   0.00000   0.00056   0.00069
     BETA DENSITY MATRIX.
                           1         2         3         4         5
   1 1   S  1S          1.07759
   2        2S         -0.30235   1.18330
   3        2PX         0.00000   0.00000   1.05479
   4        2PY         0.00000   0.00000   0.00000   1.02401
   5        2PZ        -0.00373   0.01727   0.00000   0.00000   1.03353
   6        3S          0.02674  -0.22308   0.00000   0.00000  -0.04358
   7        3PX         0.00000   0.00000  -0.15818   0.00000   0.00000
   8        3PY         0.00000   0.00000   0.00000  -0.07273   0.00000
   9        3PZ         0.01021  -0.04747   0.00000   0.00000  -0.09818
  10        4S          0.03121  -0.12935   0.00000   0.00000  -0.05490
  11        4PX         0.00000   0.00000  -0.11716   0.00000   0.00000
  12        4PY         0.00000   0.00000   0.00000  -0.02906   0.00000
  13        4PZ         0.00453  -0.02337   0.00000   0.00000  -0.04909
  14        5XX         0.00729  -0.00164   0.00000   0.00000  -0.00606
  15        5YY         0.00758  -0.00288   0.00000   0.00000   0.00504
  16        5ZZ         0.00729  -0.00147   0.00000   0.00000   0.00727
  17        5XY         0.00000   0.00000   0.00000   0.00000   0.00000
  18        5XZ         0.00000   0.00000   0.00319   0.00000   0.00000
  19        5YZ         0.00000   0.00000   0.00000   0.01493   0.00000
  20 2   H  1S          0.00479  -0.02110   0.00000  -0.04586   0.03996
  21        2S         -0.00211   0.00755   0.00000  -0.04992   0.04566
  22        3PX         0.00000   0.00000  -0.00508   0.00000   0.00000
  23        3PY        -0.00050   0.00234   0.00000   0.00306  -0.00492
  24        3PZ         0.00086  -0.00399   0.00000  -0.00510   0.00174
  25 3   H  1S          0.00479  -0.02110   0.00000   0.04586   0.03996
  26        2S         -0.00211   0.00755   0.00000   0.04992   0.04566
  27        3PX         0.00000   0.00000  -0.00508   0.00000   0.00000
  28        3PY         0.00050  -0.00234   0.00000   0.00306   0.00492
  29        3PZ         0.00086  -0.00399   0.00000   0.00510   0.00174
                           6         7         8         9        10
   6        3S          0.50286
   7        3PX         0.00000   0.47484
   8        3PY         0.00000   0.00000   0.24318
   9        3PZ         0.11016   0.00000   0.00000   0.31001
  10        4S          0.25319   0.00000   0.00000   0.14944   0.15881
  11        4PX         0.00000   0.30047   0.00000   0.00000   0.00000
  12        4PY         0.00000   0.00000   0.05855   0.00000   0.00000
  13        4PZ         0.05651   0.00000   0.00000   0.11149   0.06107
  14        5XX         0.00154   0.00000   0.00000   0.01950   0.00717
  15        5YY         0.00389   0.00000   0.00000  -0.01016  -0.00157
  16        5ZZ         0.00037   0.00000   0.00000  -0.01825  -0.00574
  17        5XY         0.00000   0.00000   0.00000   0.00000   0.00000
  18        5XZ         0.00000  -0.00979   0.00000   0.00000   0.00000
  19        5YZ         0.00000   0.00000  -0.04122   0.00000   0.00000
  20 2   H  1S          0.03582   0.00000   0.11375  -0.09915  -0.01706
  21        2S         -0.01899   0.00000   0.12862  -0.11968  -0.04756
  22        3PX         0.00000   0.01281   0.00000   0.00000   0.00000
  23        3PY        -0.00328   0.00000  -0.00662   0.01072   0.00210
  24        3PZ         0.00700   0.00000   0.01095  -0.00368   0.00183
  25 3   H  1S          0.03582   0.00000  -0.11375  -0.09915  -0.01706
  26        2S         -0.01899   0.00000  -0.12862  -0.11968  -0.04756
  27        3PX         0.00000   0.01281   0.00000   0.00000   0.00000
  28        3PY         0.00328   0.00000  -0.00662  -0.01072  -0.00210
  29        3PZ         0.00700   0.00000  -0.01095  -0.00368   0.00183
                          11        12        13        14        15
  11        4PX         0.19043
  12        4PY         0.00000   0.01423
  13        4PZ         0.00000   0.00000   0.04090
  14        5XX         0.00000   0.00000   0.00682   0.00133
  15        5YY         0.00000   0.00000  -0.00341  -0.00068   0.00051
  16        5ZZ         0.00000   0.00000  -0.00633  -0.00118   0.00077
  17        5XY         0.00000   0.00000   0.00000   0.00000   0.00000
  18        5XZ        -0.00619   0.00000   0.00000   0.00000   0.00000
  19        5YZ         0.00000  -0.00995   0.00000   0.00000   0.00000
  20 2   H  1S          0.00000   0.02752  -0.03321  -0.00704   0.00445
  21        2S          0.00000   0.03110  -0.04230  -0.00780   0.00432
  22        3PX         0.00812   0.00000   0.00000   0.00000   0.00000
  23        3PY         0.00000  -0.00161   0.00362   0.00075  -0.00047
  24        3PZ         0.00000   0.00266  -0.00103  -0.00032   0.00026
  25 3   H  1S          0.00000  -0.02752  -0.03321  -0.00704   0.00445
  26        2S          0.00000  -0.03110  -0.04230  -0.00780   0.00432
  27        3PX         0.00812   0.00000   0.00000   0.00000   0.00000
  28        3PY         0.00000  -0.00161  -0.00362  -0.00075   0.00047
  29        3PZ         0.00000  -0.00266  -0.00103  -0.00032   0.00026
                          16        17        18        19        20
  16        5ZZ         0.00123
  17        5XY         0.00000   0.00000
  18        5XZ         0.00000   0.00000   0.00020
  19        5YZ         0.00000   0.00000   0.00000   0.00699
  20 2   H  1S          0.00693   0.00000   0.00000  -0.01931   0.09608
  21        2S          0.00741   0.00000   0.00000  -0.02183   0.10227
  22        3PX         0.00000   0.00000  -0.00026   0.00000   0.00000
  23        3PY        -0.00074   0.00000   0.00000   0.00112  -0.00764
  24        3PZ         0.00034   0.00000   0.00000  -0.00186   0.00760
  25 3   H  1S          0.00693   0.00000   0.00000   0.01931  -0.01062
  26        2S          0.00741   0.00000   0.00000   0.02183  -0.01833
  27        3PX         0.00000   0.00000  -0.00026   0.00000   0.00000
  28        3PY         0.00074   0.00000   0.00000   0.00112   0.00143
  29        3PZ         0.00034   0.00000   0.00000   0.00186  -0.00268
                          21        22        23        24        25
  21        2S          0.11563
  22        3PX         0.00000   0.00035
  23        3PY        -0.00802   0.00000   0.00066
  24        3PZ         0.00766   0.00000  -0.00056   0.00069
  25 3   H  1S         -0.01833   0.00000  -0.00143  -0.00268   0.09608
  26        2S         -0.02070   0.00000  -0.00100  -0.00396   0.10227
  27        3PX         0.00000   0.00035   0.00000   0.00000   0.00000
  28        3PY         0.00100   0.00000  -0.00030  -0.00004   0.00764
  29        3PZ        -0.00396   0.00000   0.00004  -0.00030   0.00760
                          26        27        28        29
  26        2S          0.11563
  27        3PX         0.00000   0.00035
  28        3PY         0.00802   0.00000   0.00066
  29        3PZ         0.00766   0.00000   0.00056   0.00069
    Full Mulliken population analysis:
                           1         2         3         4         5
   1 1   S  1S          2.15518
   2        2S         -0.15887   2.36661
   3        2PX         0.00000   0.00000   2.10958
   4        2PY         0.00000   0.00000   0.00000   2.04802
   5        2PZ         0.00000   0.00000   0.00000   0.00000   2.06707
   6        3S          0.00055  -0.14403   0.00000   0.00000   0.00000
   7        3PX         0.00000   0.00000  -0.09823   0.00000   0.00000
   8        3PY         0.00000   0.00000   0.00000  -0.04517   0.00000
   9        3PZ         0.00000   0.00000   0.00000   0.00000  -0.06097
  10        4S          0.00202  -0.06444   0.00000   0.00000   0.00000
  11        4PX         0.00000   0.00000  -0.01632   0.00000   0.00000
  12        4PY         0.00000   0.00000   0.00000  -0.00405   0.00000
  13        4PZ         0.00000   0.00000   0.00000   0.00000  -0.00684
  14        5XX         0.00004  -0.00051   0.00000   0.00000   0.00000
  15        5YY         0.00004  -0.00090   0.00000   0.00000   0.00000
  16        5ZZ         0.00004  -0.00046   0.00000   0.00000   0.00000
  17        5XY         0.00000   0.00000   0.00000   0.00000   0.00000
  18        5XZ         0.00000   0.00000   0.00000   0.00000   0.00000
  19        5YZ         0.00000   0.00000   0.00000   0.00000   0.00000
  20 2   H  1S          0.00001  -0.00062   0.00000  -0.00107  -0.00093
  21        2S         -0.00006   0.00158   0.00000  -0.00255  -0.00233
  22        3PX         0.00000   0.00000  -0.00007   0.00000   0.00000
  23        3PY         0.00000  -0.00014   0.00000  -0.00012  -0.00026
  24        3PZ         0.00000  -0.00024   0.00000  -0.00027  -0.00007
  25 3   H  1S          0.00001  -0.00062   0.00000  -0.00107  -0.00093
  26        2S         -0.00006   0.00158   0.00000  -0.00255  -0.00233
  27        3PX         0.00000   0.00000  -0.00007   0.00000   0.00000
  28        3PY         0.00000  -0.00014   0.00000  -0.00012  -0.00026
  29        3PZ         0.00000  -0.00024   0.00000  -0.00027  -0.00007
                           6         7         8         9        10
   6        3S          1.00572
   7        3PX         0.00000   0.94967
   8        3PY         0.00000   0.00000   0.48635
   9        3PZ         0.00000   0.00000   0.00000   0.62002
  10        4S          0.41945   0.00000   0.00000   0.00000   0.31762
  11        4PX         0.00000   0.38069   0.00000   0.00000   0.00000
  12        4PY         0.00000   0.00000   0.07418   0.00000   0.00000
  13        4PZ         0.00000   0.00000   0.00000   0.14126   0.00000
  14        5XX         0.00225   0.00000   0.00000   0.00000   0.00856
  15        5YY         0.00568   0.00000   0.00000   0.00000  -0.00187
  16        5ZZ         0.00054   0.00000   0.00000   0.00000  -0.00686
  17        5XY         0.00000   0.00000   0.00000   0.00000   0.00000
  18        5XZ         0.00000   0.00000   0.00000   0.00000   0.00000
  19        5YZ         0.00000   0.00000   0.00000   0.00000   0.00000
  20 2   H  1S          0.01267   0.00000   0.04851   0.04228  -0.00933
  21        2S         -0.01607   0.00000   0.06632   0.06171  -0.05747
  22        3PX         0.00000   0.00340   0.00000   0.00000   0.00000
  23        3PY         0.00117   0.00000   0.00145   0.00520  -0.00051
  24        3PZ         0.00251   0.00000   0.00531   0.00081   0.00044
  25 3   H  1S          0.01267   0.00000   0.04851   0.04228  -0.00933
  26        2S         -0.01607   0.00000   0.06632   0.06171  -0.05747
  27        3PX         0.00000   0.00340   0.00000   0.00000   0.00000
  28        3PY         0.00117   0.00000   0.00145   0.00520  -0.00051
  29        3PZ         0.00251   0.00000   0.00531   0.00081   0.00044
                          11        12        13        14        15
  11        4PX         0.38086
  12        4PY         0.00000   0.02846
  13        4PZ         0.00000   0.00000   0.08179
  14        5XX         0.00000   0.00000   0.00000   0.00267
  15        5YY         0.00000   0.00000   0.00000  -0.00045   0.00102
  16        5ZZ         0.00000   0.00000   0.00000  -0.00079   0.00051
  17        5XY         0.00000   0.00000   0.00000   0.00000   0.00000
  18        5XZ         0.00000   0.00000   0.00000   0.00000   0.00000
  19        5YZ         0.00000   0.00000   0.00000   0.00000   0.00000
  20 2   H  1S          0.00000   0.01668   0.02012  -0.00068   0.00150
  21        2S          0.00000   0.02816   0.03830  -0.00409   0.00279
  22        3PX         0.00304   0.00000   0.00000   0.00000   0.00000
  23        3PY         0.00000  -0.00017   0.00098  -0.00010   0.00010
  24        3PZ         0.00000   0.00072  -0.00011  -0.00004   0.00014
  25 3   H  1S          0.00000   0.01668   0.02012  -0.00068   0.00150
  26        2S          0.00000   0.02816   0.03830  -0.00409   0.00279
  27        3PX         0.00304   0.00000   0.00000   0.00000   0.00000
  28        3PY         0.00000  -0.00017   0.00098  -0.00010   0.00010
  29        3PZ         0.00000   0.00072  -0.00011  -0.00004   0.00014
                          16        17        18        19        20
  16        5ZZ         0.00246
  17        5XY         0.00000   0.00000
  18        5XZ         0.00000   0.00000   0.00040
  19        5YZ         0.00000   0.00000   0.00000   0.01399
  20 2   H  1S          0.00234   0.00000   0.00000   0.00808   0.19215
  21        2S          0.00478   0.00000   0.00000   0.00454   0.13465
  22        3PX         0.00000   0.00000   0.00007   0.00000   0.00000
  23        3PY         0.00039   0.00000   0.00000   0.00045   0.00000
  24        3PZ         0.00007   0.00000   0.00000   0.00075   0.00000
  25 3   H  1S          0.00234   0.00000   0.00000   0.00808  -0.00015
  26        2S          0.00478   0.00000   0.00000   0.00454  -0.00371
  27        3PX         0.00000   0.00000   0.00007   0.00000   0.00000
  28        3PY         0.00039   0.00000   0.00000   0.00045   0.00005
  29        3PZ         0.00007   0.00000   0.00000   0.00075   0.00000
                          21        22        23        24        25
  21        2S          0.23126
  22        3PX         0.00000   0.00069
  23        3PY         0.00000   0.00000   0.00133
  24        3PZ         0.00000   0.00000   0.00000   0.00138
  25 3   H  1S         -0.00371   0.00000   0.00005   0.00000   0.19215
  26        2S         -0.01308   0.00000   0.00023   0.00000   0.13465
  27        3PX         0.00000   0.00000   0.00000   0.00000   0.00000
  28        3PY         0.00023   0.00000   0.00003   0.00000   0.00000
  29        3PZ         0.00000   0.00000   0.00000   0.00000   0.00000
                          26        27        28        29
  26        2S          0.23126
  27        3PX         0.00000   0.00069
  28        3PY         0.00000   0.00000   0.00133
  29        3PZ         0.00000   0.00000   0.00000   0.00138
     Gross orbital populations:
                         TOTAL     ALPHA     BETA      SPIN
   1 1   S  1S          1.99890   0.99945   0.99945   0.00000
   2        2S          1.99858   0.99929   0.99929   0.00000
   3        2PX         1.99490   0.99745   0.99745   0.00000
   4        2PY         1.99076   0.99538   0.99538   0.00000
   5        2PZ         1.99205   0.99603   0.99603   0.00000
   6        3S          1.29072   0.64536   0.64536   0.00000
   7        3PX         1.23894   0.61947   0.61947   0.00000
   8        3PY         0.75854   0.37927   0.37927   0.00000
   9        3PZ         0.92030   0.46015   0.46015   0.00000
  10        4S          0.54075   0.27037   0.27037   0.00000
  11        4PX         0.75132   0.37566   0.37566   0.00000
  12        4PY         0.18938   0.09469   0.09469   0.00000
  13        4PZ         0.33481   0.16741   0.16741   0.00000
  14        5XX         0.00194   0.00097   0.00097   0.00000
  15        5YY         0.01307   0.00654   0.00654   0.00000
  16        5ZZ         0.01061   0.00530   0.00530   0.00000
  17        5XY         0.00000   0.00000   0.00000   0.00000
  18        5XZ         0.00055   0.00027   0.00027   0.00000
  19        5YZ         0.04163   0.02081   0.02081   0.00000
  20 2   H  1S          0.46255   0.23127   0.23127   0.00000
  21        2S          0.47494   0.23747   0.23747   0.00000
  22        3PX         0.00715   0.00357   0.00357   0.00000
  23        3PY         0.01008   0.00504   0.00504   0.00000
  24        3PZ         0.01140   0.00570   0.00570   0.00000
  25 3   H  1S          0.46255   0.23127   0.23127   0.00000
  26        2S          0.47494   0.23747   0.23747   0.00000
  27        3PX         0.00715   0.00357   0.00357   0.00000
  28        3PY         0.01008   0.00504   0.00504   0.00000
  29        3PZ         0.01140   0.00570   0.00570   0.00000
          Condensed to atoms (all electrons):
              1          2          3
     1  S   15.487609   0.290073   0.290073
     2  H    0.290073   0.696101  -0.020051
     3  H    0.290073  -0.020051   0.696101
 Mulliken atomic charges:
              1
     1  S   -0.067755
     2  H    0.033877
     3  H    0.033877
 Sum of Mulliken charges=   0.00000
 Atomic charges with hydrogens summed into heavy atoms:
              1
     1  S    0.000000
     2  H    0.000000
     3  H    0.000000
 Sum of Mulliken charges=   0.00000
          Atomic-Atomic Spin Densities.
              1          2          3
     1  S    0.000000   0.000000   0.000000
     2  H    0.000000   0.000000   0.000000
     3  H    0.000000   0.000000   0.000000
 Mulliken atomic spin densities:
              1
     1  S    0.000000
     2  H    0.000000
     3  H    0.000000
 Sum of Mulliken spin densities=   0.00000
 Electronic spatial extent (au):  <R**2>=    45.4809
 Charge=     0.0000 electrons
 Dipole moment (field-independent basis, Debye):
    X=     0.0000    Y=     0.0000    Z=    -1.2820  Tot=     1.2820
 Quadrupole moment (field-independent basis, Debye-Ang):
   XX=   -16.8621   YY=   -12.5227   ZZ=   -13.6432
   XY=     0.0000   XZ=     0.0000   YZ=     0.0000
 Traceless Quadrupole moment (field-independent basis, Debye-Ang):
   XX=    -2.5194   YY=     1.8200   ZZ=     0.6995
   XY=     0.0000   XZ=     0.0000   YZ=     0.0000
 Octapole moment (field-independent basis, Debye-Ang**2):
  XXX=     0.0000  YYY=     0.0000  ZZZ=    -1.2133  XYY=     0.0000
  XXY=     0.0000  XXZ=    -0.3838  XZZ=     0.0000  YZZ=     0.0000
  YYZ=    -0.9618  XYZ=     0.0000
 Hexadecapole moment (field-independent basis, Debye-Ang**3):
 XXXX=   -23.5424 YYYY=   -24.2465 ZZZZ=   -25.8584 XXXY=     0.0000
 XXXZ=     0.0000 YYYX=     0.0000 YYYZ=     0.0000 ZZZX=     0.0000
 ZZZY=     0.0000 XXYY=    -8.3249 XXZZ=    -8.5502 YYZZ=    -7.1767
 XXYZ=     0.0000 YYXZ=     0.0000 ZZXY=     0.0000
 N-N= 1.223850196218D+01 E-N=-9.734537362755D+02  KE= 3.982868212869D+02
 Symmetry A1   KE= 3.220483865093D+02
 Symmetry A2   KE= 1.513959623389D-34
 Symmetry B1   KE= 3.858291493813D+01
 Symmetry B2   KE= 3.765551983947D+01
 Orbital energies and kinetic energies (alpha):
                           1         2
       1  (A1)--O     -91.96787 121.01979
       2  (A1)--O      -8.97526  18.78631
       3  (B2)--O      -6.65782  17.57927
       4  (A1)--O      -6.65683  17.58683
       5  (B1)--O      -6.65460  17.60782
       6  (A1)--O      -0.96481   2.01975
       7  (B2)--O      -0.56503   1.24849
       8  (A1)--O      -0.49761   1.61150
       9  (B1)--O      -0.38419   1.68364
      10  (B2)--V       0.15001   1.00245
      11  (A1)--V       0.18734   1.22027
      12  (B2)--V       0.48916   1.95055
      13  (A1)--V       0.50506   1.56660
      14  (A1)--V       0.50936   1.99196
      15  (B1)--V       0.53482   2.22705
      16  (A1)--V       0.87990   1.92739
      17  (B2)--V       0.89632   2.09078
      18  (A2)--V       0.95046   2.05269
      19  (B1)--V       0.96066   2.08304
      20  (A1)--V       0.97777   2.34380
      21  (A1)--V       1.23814   2.38878
      22  (B2)--V       1.35687   2.45781
      23  (B2)--V       1.63723   2.10070
      24  (A2)--V       1.65252   2.22101
      25  (B1)--V       1.73900   2.29862
      26  (A1)--V       1.77032   2.42585
      27  (A1)--V       2.31517   3.63814
      28  (B2)--V       2.41385   3.59153
      29  (A1)--V       4.36637  12.87133
 Orbital energies and kinetic energies (beta):
                           1         2
       1  (A1)--O     -91.96787 121.01979
       2  (A1)--O      -8.97526  18.78631
       3  (B2)--O      -6.65782  17.57927
       4  (A1)--O      -6.65683  17.58683
       5  (B1)--O      -6.65460  17.60782
       6  (A1)--O      -0.96481   2.01975
       7  (B2)--O      -0.56503   1.24849
       8  (A1)--O      -0.49761   1.61150
       9  (B1)--O      -0.38419   1.68364
      10  (B2)--V       0.15001   1.00245
      11  (A1)--V       0.18734   1.22027
      12  (B2)--V       0.48916   1.95055
      13  (A1)--V       0.50506   1.56660
      14  (A1)--V       0.50936   1.99196
      15  (B1)--V       0.53482   2.22705
      16  (A1)--V       0.87990   1.92739
      17  (B2)--V       0.89632   2.09078
      18  (A2)--V       0.95046   2.05269
      19  (B1)--V       0.96066   2.08304
      20  (A1)--V       0.97777   2.34380
      21  (A1)--V       1.23814   2.38878
      22  (B2)--V       1.35687   2.45781
      23  (B2)--V       1.63723   2.10070
      24  (A2)--V       1.65252   2.22101
      25  (B1)--V       1.73900   2.29862
      26  (A1)--V       1.77032   2.42585
      27  (A1)--V       2.31517   3.63814
      28  (B2)--V       2.41385   3.59153
      29  (A1)--V       4.36637  12.87133
 Total kinetic energy from orbitals= 3.982868212869D+02
                          Isotropic Fermi Contact Couplings
        Atom                 a.u.       MegaHertz       Gauss      10(-4) cm-1
     1  S(33)              0.00000       0.00000       0.00000       0.00000
     2  H(1)               0.00000       0.00000       0.00000       0.00000
     3  H(1)               0.00000       0.00000       0.00000       0.00000
 --------------------------------------------------------
       Center         ----  Spin Dipole Couplings  ----
                      3XX-RR        3YY-RR        3ZZ-RR
 --------------------------------------------------------
     1   Atom        0.000000      0.000000      0.000000
     2   Atom        0.000000      0.000000      0.000000
     3   Atom        0.000000      0.000000      0.000000
 --------------------------------------------------------
                        XY            XZ            YZ
 --------------------------------------------------------
     1   Atom        0.000000      0.000000      0.000000
     2   Atom        0.000000      0.000000      0.000000
     3   Atom        0.000000      0.000000      0.000000
 --------------------------------------------------------


 ---------------------------------------------------------------------------------
              Anisotropic Spin Dipole Couplings in Principal Axis System
 ---------------------------------------------------------------------------------

       Atom             a.u.   MegaHertz   Gauss  10(-4) cm-1        Axes

              Baa     0.0000     0.000     0.000     0.000  1.0000  0.0000  0.0000
     1 S(33)  Bbb     0.0000     0.000     0.000     0.000  0.0000  1.0000  0.0000
              Bcc     0.0000     0.000     0.000     0.000  0.0000  0.0000  1.0000
 
              Baa     0.0000     0.000     0.000     0.000  1.0000  0.0000  0.0000
     2 H(1)   Bbb     0.0000     0.000     0.000     0.000  0.0000  1.0000  0.0000
              Bcc     0.0000     0.000     0.000     0.000  0.0000  0.0000  1.0000
 
              Baa     0.0000     0.000     0.000     0.000  1.0000  0.0000  0.0000
     3 H(1)   Bbb     0.0000     0.000     0.000     0.000  0.0000  1.0000  0.0000
              Bcc     0.0000     0.000     0.000     0.000  0.0000  0.0000  1.0000
 

 ---------------------------------------------------------------------------------

 ***** Axes restored to original set *****
 -------------------------------------------------------------------
 Center     Atomic                   Forces (Hartrees/Bohr)
 Number     Number              X              Y              Z
 -------------------------------------------------------------------
    1         16           0.000000000    0.000000000   -0.061215201
    2          1           0.000000000   -0.024437101    0.030607600
    3          1           0.000000000    0.024437101    0.030607600
 -------------------------------------------------------------------
 Cartesian Forces:  Max     0.061215201 RMS     0.027518267

 GradGradGradGradGradGradGradGradGradGradGradGradGradGradGradGradGradGrad
 Berny optimization.
 Internal  Forces:  Max     0.038922481 RMS     0.032485318
 Search for a local minimum.
 Step number   1 out of a maximum of  20
 All quantities printed in internal units (Hartrees-Bohrs-Radians)
 Second derivative matrix not updated -- first step.
 The second derivative matrix:
                          R1        R2        A1
           R1           0.21274
           R2           0.00000   0.21274
           A1           0.00000   0.00000   0.16000
     Eigenvalues ---    0.16000   0.21274   0.21274
 RFO step:  Lambda=-1.41355810D-02.
 Linear search not attempted -- first point.
 Iteration  1 RMS(Cart)=  0.09907855 RMS(Int)=  0.00294059
 Iteration  2 RMS(Cart)=  0.00438163 RMS(Int)=  0.00000558
 Iteration  3 RMS(Cart)=  0.00000383 RMS(Int)=  0.00000000
 Iteration  4 RMS(Cart)=  0.00000000 RMS(Int)=  0.00000000
 Variable       Old X    -DE/DX   Delta X   Delta X   Delta X     New X
                                 (Linear)    (Quad)   (Total)
    R1        2.67248  -0.03892   0.00000  -0.17156  -0.17156   2.50092
    R2        2.67248  -0.03892   0.00000  -0.17156  -0.17156   2.50092
    A1        1.57080   0.01166   0.00000   0.06696   0.06696   1.63776
         Item               Value     Threshold  Converged?
 Maximum Force            0.038922     0.000450     NO 
 RMS     Force            0.032485     0.000300     NO 
 Maximum Displacement     0.120998     0.001800     NO 
 RMS     Displacement     0.099874     0.001200     NO 
 Predicted change in Energy=-7.515513D-03
 GradGradGradGradGradGradGradGradGradGradGradGradGradGradGradGradGradGrad

                          Input orientation:                          
 ---------------------------------------------------------------------
 Center     Atomic     Atomic              Coordinates (Angstroms)
 Number     Number      Type              X           Y           Z
 ---------------------------------------------------------------------
    1         16             0        0.000000    0.000000   -0.064029
    2          1             0        0.000000    0.966608   -0.967985
    3          1             0        0.000000   -0.966608   -0.967985
 ---------------------------------------------------------------------
                    Distance matrix (angstroms):
                    1          2          3
     1  S    0.000000
     2  H    1.323430   0.000000
     3  H    1.323430   1.933216   0.000000
 Stoichiometry    H2S
 Framework group  C2V[C2(S),SGV(H2)]
 Deg. of freedom     2
 Full point group                 C2V     NOp   4
 Largest Abelian subgroup         C2V     NOp   4
 Largest concise Abelian subgroup C2      NOp   2
                         Standard orientation:                         
 ---------------------------------------------------------------------
 Center     Atomic     Atomic              Coordinates (Angstroms)
 Number     Number      Type              X           Y           Z
 ---------------------------------------------------------------------
    1         16             0        0.000000    0.000000    0.100440
    2          1             0        0.000000    0.966608   -0.803516
    3          1             0        0.000000   -0.966608   -0.803516
 ---------------------------------------------------------------------
 Rotational constants (GHZ):    326.1812047    268.3497842    147.2263978
 Standard basis: 6-31(d',p') (6D, 7F)
 There are    14 symmetry adapted basis functions of A1  symmetry.
 There are     2 symmetry adapted basis functions of A2  symmetry.
 There are     5 symmetry adapted basis functions of B1  symmetry.
 There are     8 symmetry adapted basis functions of B2  symmetry.
 Integral buffers will be    262144 words long.
 Raffenetti 2 integral format.
 Two-electron integral symmetry is turned on.
    29 basis functions,    66 primitive gaussians,    29 cartesian basis functions
     9 alpha electrons        9 beta electrons
       nuclear repulsion energy        13.0690180616 Hartrees.
 NAtoms=    3 NActive=    3 NUniq=    2 SFac= 2.76D+00 NAtFMM=   60 Big=F
 One-electron integrals computed using PRISM.
 NBasis=    29 RedAO= T  NBF=    14     2     5     8
 NBsUse=    29 1.00D-06 NBFU=    14     2     5     8
 Initial guess read from the read-write file:
 Initial guess orbital symmetries:
 Alpha Orbitals:
       Occupied  (A1) (A1) (B2) (A1) (B1) (A1) (B2) (A1) (B1)
       Virtual   (B2) (A1) (B2) (A1) (A1) (B1) (A1) (B2) (A2) (B1)
                 (A1) (A1) (B2) (B2) (A2) (B1) (A1) (A1) (B2) (A1)
 Beta  Orbitals:
       Occupied  (A1) (A1) (B2) (A1) (B1) (A1) (B2) (A1) (B1)
       Virtual   (B2) (A1) (B2) (A1) (A1) (B1) (A1) (B2) (A2) (B1)
                 (A1) (A1) (B2) (B2) (A2) (B1) (A1) (A1) (B2) (A1)
 <S**2> of initial guess= 0.0000
 Harris functional with IExCor=  205 diagonalized for initial guess.
 ExpMin= 1.17D-01 ExpMax= 2.19D+04 ExpMxC= 3.30D+03 IAcc=1 IRadAn=         1 AccDes= 1.00D-06
 HarFok:  IExCor= 205 AccDes= 1.00D-06 IRadAn=         1 IDoV=1
 ScaDFX=  1.000000  1.000000  1.000000  1.000000
 Requested convergence on RMS density matrix=1.00D-08 within 128 cycles.
 Requested convergence on MAX density matrix=1.00D-06.
 Requested convergence on             energy=1.00D-06.
 No special actions if energy rises.
 Keep R1 and R2 integrals in memory in canonical form, NReq=      652907.
 SCF Done:  E(UHF) =  -398.675997200     A.U. after    9 cycles
             Convg  =    0.4719D-08             -V/T =  2.0004
             S**2   =   0.0000
 Annihilation of the first spin contaminant:
 S**2 before annihilation     0.0000,   after     0.0000
 ***** Axes restored to original set *****
 -------------------------------------------------------------------
 Center     Atomic                   Forces (Hartrees/Bohr)
 Number     Number              X              Y              Z
 -------------------------------------------------------------------
    1         16           0.000000000    0.000000000    0.004581082
    2          1           0.000000000    0.003242020   -0.002290541
    3          1           0.000000000   -0.003242020   -0.002290541
 -------------------------------------------------------------------
 Cartesian Forces:  Max     0.004581082 RMS     0.002415249

 GradGradGradGradGradGradGradGradGradGradGradGradGradGradGradGradGradGrad
 Berny optimization.
 Internal  Forces:  Max     0.003932441 RMS     0.003304639
 Search for a local minimum.
 Step number   2 out of a maximum of  20
 All quantities printed in internal units (Hartrees-Bohrs-Radians)
 Update second derivatives using D2CorX and points  1  2
 Trust test= 9.35D-01 RLast= 2.52D-01 DXMaxT set to 4.24D-01
 The second derivative matrix:
                          R1        R2        A1
           R1           0.23144
           R2           0.01869   0.23144
           A1           0.00084   0.00084   0.15823
     Eigenvalues ---    0.15821   0.21274   0.25015
 RFO step:  Lambda=-3.45027664D-05.
 Quartic linear search produced a step of -0.06697.
 Iteration  1 RMS(Cart)=  0.01480429 RMS(Int)=  0.00003839
 Iteration  2 RMS(Cart)=  0.00004290 RMS(Int)=  0.00000000
 Iteration  3 RMS(Cart)=  0.00000000 RMS(Int)=  0.00000000
 Variable       Old X    -DE/DX   Delta X   Delta X   Delta X     New X
                                 (Linear)    (Quad)   (Total)
    R1        2.50092   0.00393   0.01149   0.00173   0.01322   2.51414
    R2        2.50092   0.00393   0.01149   0.00173   0.01322   2.51414
    A1        1.63776   0.00135  -0.00448   0.01442   0.00994   1.64769
         Item               Value     Threshold  Converged?
 Maximum Force            0.003932     0.000450     NO 
 RMS     Force            0.003305     0.000300     NO 
 Maximum Displacement     0.018166     0.001800     NO 
 RMS     Displacement     0.014832     0.001200     NO 
 Predicted change in Energy=-6.568549D-05
 GradGradGradGradGradGradGradGradGradGradGradGradGradGradGradGradGradGrad

                          Input orientation:                          
 ---------------------------------------------------------------------
 Center     Atomic     Atomic              Coordinates (Angstroms)
 Number     Number      Type              X           Y           Z
 ---------------------------------------------------------------------
    1         16             0        0.000000    0.000000   -0.064069
    2          1             0        0.000000    0.976221   -0.967966
    3          1             0        0.000000   -0.976221   -0.967966
 ---------------------------------------------------------------------
                    Distance matrix (angstroms):
                    1          2          3
     1  S    0.000000
     2  H    1.330427   0.000000
     3  H    1.330427   1.952442   0.000000
 Stoichiometry    H2S
 Framework group  C2V[C2(S),SGV(H2)]
 Deg. of freedom     2
 Full point group                 C2V     NOp   4
 Largest Abelian subgroup         C2V     NOp   4
 Largest concise Abelian subgroup C2      NOp   2
                         Standard orientation:                         
 ---------------------------------------------------------------------
 Center     Atomic     Atomic              Coordinates (Angstroms)
 Number     Number      Type              X           Y           Z
 ---------------------------------------------------------------------
    1         16             0        0.000000    0.000000    0.100433
    2          1             0        0.000000    0.976221   -0.803464
    3          1             0        0.000000   -0.976221   -0.803464
 ---------------------------------------------------------------------
 Rotational constants (GHZ):    326.2237035    263.0909332    145.6378193
 Standard basis: 6-31(d',p') (6D, 7F)
 There are    14 symmetry adapted basis functions of A1  symmetry.
 There are     2 symmetry adapted basis functions of A2  symmetry.
 There are     5 symmetry adapted basis functions of B1  symmetry.
 There are     8 symmetry adapted basis functions of B2  symmetry.
 Integral buffers will be    262144 words long.
 Raffenetti 2 integral format.
 Two-electron integral symmetry is turned on.
    29 basis functions,    66 primitive gaussians,    29 cartesian basis functions
     9 alpha electrons        9 beta electrons
       nuclear repulsion energy        12.9990273740 Hartrees.
 NAtoms=    3 NActive=    3 NUniq=    2 SFac= 2.76D+00 NAtFMM=   60 Big=F
 One-electron integrals computed using PRISM.
 NBasis=    29 RedAO= T  NBF=    14     2     5     8
 NBsUse=    29 1.00D-06 NBFU=    14     2     5     8
 Initial guess read from the read-write file:
 Initial guess orbital symmetries:
 Alpha Orbitals:
       Occupied  (A1) (A1) (B2) (A1) (B1) (A1) (B2) (A1) (B1)
[...]
  22        3PX         0.00000   0.00000   0.00011   0.00000   0.00000
  23        3PY         0.00040   0.00000   0.00000   0.00051   0.00000
  24        3PZ         0.00004   0.00000   0.00000   0.00064   0.00000
  25 3   H  1S          0.00250   0.00000   0.00000   0.01048  -0.00022
  26        2S          0.00453   0.00000   0.00000   0.00453  -0.00428
  27        3PX         0.00000   0.00000   0.00011   0.00000   0.00000
  28        3PY         0.00040   0.00000   0.00000   0.00051   0.00007
  29        3PZ         0.00004   0.00000   0.00000   0.00064   0.00000
                          21        22        23        24        25
  21        2S          0.21594
  22        3PX         0.00000   0.00086
  23        3PY         0.00000   0.00000   0.00134
  24        3PZ         0.00000   0.00000   0.00000   0.00115
  25 3   H  1S         -0.00428   0.00000   0.00007   0.00000   0.20755
  26        2S         -0.01234   0.00000   0.00029   0.00000   0.13429
  27        3PX         0.00000   0.00001   0.00000   0.00000   0.00000
  28        3PY         0.00029   0.00000   0.00004   0.00000   0.00000
  29        3PZ         0.00000   0.00000   0.00000   0.00000   0.00000
                          26        27        28        29
  26        2S          0.21594
  27        3PX         0.00000   0.00086
  28        3PY         0.00000   0.00000   0.00134
  29        3PZ         0.00000   0.00000   0.00000   0.00115
     Gross orbital populations:
                         TOTAL     ALPHA     BETA      SPIN
   1 1   S  1S          1.99890   0.99945   0.99945   0.00000
   2        2S          1.99840   0.99920   0.99920   0.00000
   3        2PX         1.99478   0.99739   0.99739   0.00000
   4        2PY         1.99093   0.99546   0.99546   0.00000
   5        2PZ         1.99243   0.99621   0.99621   0.00000
   6        3S          1.27481   0.63740   0.63740   0.00000
   7        3PX         1.23361   0.61680   0.61680   0.00000
   8        3PY         0.78251   0.39125   0.39125   0.00000
   9        3PZ         0.96061   0.48030   0.48030   0.00000
  10        4S          0.52914   0.26457   0.26457   0.00000
  11        4PX         0.75240   0.37620   0.37620   0.00000
  12        4PY         0.14665   0.07333   0.07333   0.00000
  13        4PZ         0.32925   0.16462   0.16462   0.00000
  14        5XX         0.00133   0.00067   0.00067   0.00000
  15        5YY         0.01644   0.00822   0.00822   0.00000
  16        5ZZ         0.00905   0.00452   0.00452   0.00000
  17        5XY         0.00000   0.00000   0.00000   0.00000
  18        5XZ         0.00076   0.00038   0.00038   0.00000
  19        5YZ         0.04794   0.02397   0.02397   0.00000
  20 2   H  1S          0.49734   0.24867   0.24867   0.00000
  21        2S          0.44160   0.22080   0.22080   0.00000
  22        3PX         0.00922   0.00461   0.00461   0.00000
  23        3PY         0.01110   0.00555   0.00555   0.00000
  24        3PZ         0.01078   0.00539   0.00539   0.00000
  25 3   H  1S          0.49734   0.24867   0.24867   0.00000
  26        2S          0.44160   0.22080   0.22080   0.00000
  27        3PX         0.00922   0.00461   0.00461   0.00000
  28        3PY         0.01110   0.00555   0.00555   0.00000
  29        3PZ         0.01078   0.00539   0.00539   0.00000
          Condensed to atoms (all electrons):
              1          2          3
     1  S   15.469958   0.294982   0.294982
     2  H    0.294982   0.695418  -0.020361
     3  H    0.294982  -0.020361   0.695418
 Mulliken atomic charges:
              1
     1  S   -0.059921
     2  H    0.029961
     3  H    0.029961
 Sum of Mulliken charges=   0.00000
 Atomic charges with hydrogens summed into heavy atoms:
              1
     1  S    0.000000
     2  H    0.000000
     3  H    0.000000
 Sum of Mulliken charges=   0.00000
          Atomic-Atomic Spin Densities.
              1          2          3
     1  S    0.000000   0.000000   0.000000
     2  H    0.000000   0.000000   0.000000
     3  H    0.000000   0.000000   0.000000
 Mulliken atomic spin densities:
              1
     1  S    0.000000
     2  H    0.000000
     3  H    0.000000
 Sum of Mulliken spin densities=   0.00000
 APT atomic charges:
              1
     1  S   -0.073280
     2  H    0.036640
     3  H    0.036640
 Sum of APT charges=   0.00000
 APT Atomic charges with hydrogens summed into heavy atoms:
              1
     1  S    0.000000
     2  H    0.000000
     3  H    0.000000
 Sum of APT charges=   0.00000
 Electronic spatial extent (au):  <R**2>=    43.7199
 Charge=     0.0000 electrons
 Dipole moment (field-independent basis, Debye):
    X=     0.0000    Y=     0.0000    Z=    -1.3355  Tot=     1.3355
 Quadrupole moment (field-independent basis, Debye-Ang):
   XX=   -16.6519   YY=   -12.2512   ZZ=   -13.7824
   XY=     0.0000   XZ=     0.0000   YZ=     0.0000
 Traceless Quadrupole moment (field-independent basis, Debye-Ang):
   XX=    -2.4234   YY=     1.9773   ZZ=     0.4461
   XY=     0.0000   XZ=     0.0000   YZ=     0.0000
 Octapole moment (field-independent basis, Debye-Ang**2):
  XXX=     0.0000  YYY=     0.0000  ZZZ=    -1.5001  XYY=     0.0000
  XXY=     0.0000  XXZ=    -0.5738  XZZ=     0.0000  YZZ=     0.0000
  YYZ=    -0.9398  XYZ=     0.0000
 Hexadecapole moment (field-independent basis, Debye-Ang**3):
 XXXX=   -23.2169 YYYY=   -22.3525 ZZZZ=   -24.1671 XXXY=     0.0000
 XXXZ=     0.0000 YYYX=     0.0000 YYYZ=     0.0000 ZZZX=     0.0000
 ZZZY=     0.0000 XXYY=    -7.9256 XXZZ=    -8.1091 YYZZ=    -6.8965
 XXYZ=     0.0000 YYXZ=     0.0000 ZZXY=     0.0000
 N-N= 1.300268706223D+01 E-N=-9.752056064593D+02  KE= 3.985047600497D+02
 Symmetry A1   KE= 3.221493989783D+02
 Symmetry A2   KE= 2.139751263696D-34
 Symmetry B1   KE= 3.856857085807D+01
 Symmetry B2   KE= 3.778679021338D+01
 Orbital energies and kinetic energies (alpha):
                           1         2
       1  (A1)--O     -91.95512 121.01892
       2  (A1)--O      -8.96656  18.78194
       3  (B2)--O      -6.64946  17.57607
       4  (A1)--O      -6.64829  17.58633
       5  (B1)--O      -6.64595  17.60534
       6  (A1)--O      -0.98510   2.01023
       7  (B2)--O      -0.59700   1.31733
       8  (A1)--O      -0.49696   1.67728
       9  (B1)--O      -0.38388   1.67894
      10  (B2)--V       0.17363   0.93468
      11  (A1)--V       0.21233   1.17756
      12  (A1)--V       0.47783   1.40658
      13  (B2)--V       0.47929   1.90669
      14  (A1)--V       0.51390   2.08995
      15  (B1)--V       0.53542   2.21977
      16  (A1)--V       0.86822   1.91545
      17  (B2)--V       0.89728   2.13347
      18  (A2)--V       0.93308   2.02043
      19  (B1)--V       0.95730   2.08368
      20  (A1)--V       0.99466   2.39485
      21  (A1)--V       1.29147   2.48094
      22  (B2)--V       1.44882   2.53282
      23  (B2)--V       1.63908   2.14967
      24  (A2)--V       1.69698   2.30864
      25  (B1)--V       1.78077   2.38193
      26  (A1)--V       1.84878   2.53777
      27  (A1)--V       2.43413   3.86884
      28  (B2)--V       2.55369   3.93758
      29  (A1)--V       4.38693  12.88424
 Orbital energies and kinetic energies (beta):
                           1         2
       1  (A1)--O     -91.95512 121.01892
       2  (A1)--O      -8.96656  18.78194
       3  (B2)--O      -6.64946  17.57607
       4  (A1)--O      -6.64829  17.58633
       5  (B1)--O      -6.64595  17.60534
       6  (A1)--O      -0.98510   2.01023
       7  (B2)--O      -0.59700   1.31733
       8  (A1)--O      -0.49696   1.67728
       9  (B1)--O      -0.38388   1.67894
      10  (B2)--V       0.17363   0.93468
      11  (A1)--V       0.21233   1.17756
      12  (A1)--V       0.47783   1.40658
      13  (B2)--V       0.47929   1.90669
      14  (A1)--V       0.51390   2.08995
      15  (B1)--V       0.53542   2.21977
      16  (A1)--V       0.86822   1.91545
      17  (B2)--V       0.89728   2.13347
      18  (A2)--V       0.93308   2.02043
      19  (B1)--V       0.95730   2.08368
      20  (A1)--V       0.99466   2.39485
      21  (A1)--V       1.29147   2.48094
      22  (B2)--V       1.44882   2.53282
      23  (B2)--V       1.63908   2.14967
      24  (A2)--V       1.69698   2.30864
      25  (B1)--V       1.78077   2.38193
      26  (A1)--V       1.84878   2.53777
      27  (A1)--V       2.43413   3.86884
      28  (B2)--V       2.55369   3.93758
      29  (A1)--V       4.38693  12.88424
 Total kinetic energy from orbitals= 3.985047600497D+02
  Exact polarizability:  11.515   0.000  17.891   0.000   0.000  15.273
 Approx polarizability:  10.268   0.000  15.827   0.000   0.000  13.372
                          Isotropic Fermi Contact Couplings
        Atom                 a.u.       MegaHertz       Gauss      10(-4) cm-1
     1  S(33)              0.00000       0.00000       0.00000       0.00000
     2  H(1)               0.00000       0.00000       0.00000       0.00000
     3  H(1)               0.00000       0.00000       0.00000       0.00000
 --------------------------------------------------------
       Center         ----  Spin Dipole Couplings  ----
                      3XX-RR        3YY-RR        3ZZ-RR
 --------------------------------------------------------
     1   Atom        0.000000      0.000000      0.000000
     2   Atom        0.000000      0.000000      0.000000
     3   Atom        0.000000      0.000000      0.000000
 --------------------------------------------------------
                        XY            XZ            YZ
 --------------------------------------------------------
     1   Atom        0.000000      0.000000      0.000000
     2   Atom        0.000000      0.000000      0.000000
     3   Atom        0.000000      0.000000      0.000000
 --------------------------------------------------------


 ---------------------------------------------------------------------------------
              Anisotropic Spin Dipole Couplings in Principal Axis System
 ---------------------------------------------------------------------------------

       Atom             a.u.   MegaHertz   Gauss  10(-4) cm-1        Axes

              Baa     0.0000     0.000     0.000     0.000  1.0000  0.0000  0.0000
     1 S(33)  Bbb     0.0000     0.000     0.000     0.000  0.0000  1.0000  0.0000
              Bcc     0.0000     0.000     0.000     0.000  0.0000  0.0000  1.0000
 
              Baa     0.0000     0.000     0.000     0.000  1.0000  0.0000  0.0000
     2 H(1)   Bbb     0.0000     0.000     0.000     0.000  0.0000  1.0000  0.0000
              Bcc     0.0000     0.000     0.000     0.000  0.0000  0.0000  1.0000
 
              Baa     0.0000     0.000     0.000     0.000  1.0000  0.0000  0.0000
     3 H(1)   Bbb     0.0000     0.000     0.000     0.000  0.0000  1.0000  0.0000
              Bcc     0.0000     0.000     0.000     0.000  0.0000  0.0000  1.0000
 

 ---------------------------------------------------------------------------------

 Full mass-weighted force constant matrix:
 Low frequencies ---   -5.5207   -0.0075   -0.0065   -0.0059   23.5941   35.7414
 Low frequencies --- 1322.9454 2874.7149 2887.4054
 Diagonal vibrational polarizability:
        0.0000000       0.0200537       0.1424858
 Diagonal vibrational hyperpolarizability:
        0.0000000       0.0000000       9.4767296
 Harmonic frequencies (cm**-1), IR intensities (KM/Mole), Raman scattering
 activities (A**4/AMU), depolarization ratios for plane and unpolarized
 incident light, reduced masses (AMU), force constants (mDyne/A),
 and normal coordinates:
                     1                      2                      3
                    A1                     A1                     B2
 Frequencies --  1322.9454              2874.7149              2887.4054
 Red. masses --     1.0402                 1.0351                 1.0408
 Frc consts  --     1.0726                 5.0399                 5.1123
 IR Inten    --     8.7365                 2.5032                 6.2126
 Raman Activ --    41.0256               173.5772               127.7397
 Depolar (P) --     0.6986                 0.2067                 0.7500
 Depolar (U) --     0.8226                 0.3425                 0.8571
 Atom AN      X      Y      Z        X      Y      Z        X      Y      Z
   1  16     0.00   0.00   0.03     0.00   0.00   0.03     0.00   0.03   0.00
   2   1     0.00  -0.49  -0.51     0.00   0.53  -0.47     0.00  -0.52   0.48
   3   1     0.00   0.49  -0.51     0.00  -0.53  -0.47     0.00  -0.52  -0.48

 -------------------
 - Thermochemistry -
 -------------------
 Temperature   298.150 Kelvin.  Pressure   1.00000 Atm.
 Atom  1 has atomic number 16 and mass  31.97207
 Atom  2 has atomic number  1 and mass   1.00783
 Atom  3 has atomic number  1 and mass   1.00783
 Molecular mass:    33.98772 amu.
 Principal axes and moments of inertia in atomic units:
                           1         2         3
     EIGENVALUES --     5.56039   6.82391  12.38430
           X            0.00000   0.00000   1.00000
           Y            1.00000   0.00000   0.00000
           Z            0.00000   1.00000   0.00000
 This molecule is an asymmetric top.
 Rotational symmetry number  2.
 Rotational temperatures (Kelvin)     15.57693    12.69269     6.99384
 Rotational constants (GHZ):         324.57095   264.47302   145.72810
 Zero-point vibrational energy      42378.1 (Joules/Mol)
                                   10.12861 (Kcal/Mol)
 Vibrational temperatures:   1903.42  4136.07  4154.33
          (Kelvin)
 
 Zero-point correction=                           0.016141 (Hartree/Particle)
 Thermal correction to Energy=                    0.018984
 Thermal correction to Enthalpy=                  0.019928
 Thermal correction to Gibbs Free Energy=        -0.003384
 Sum of electronic and zero-point Energies=           -398.659909
 Sum of electronic and thermal Energies=              -398.657066
 Sum of electronic and thermal Enthalpies=            -398.656122
 Sum of electronic and thermal Free Energies=         -398.679434
 
                     E (Thermal)             CV                S
                      KCal/Mol        Cal/Mol-Kelvin    Cal/Mol-Kelvin
 Total                   11.912              6.100             49.065
 Electronic               0.000              0.000              0.000
 Translational            0.889              2.981             36.501
 Rotational               0.889              2.981             12.539
 Vibrational             10.135              0.138              0.025
                       Q            Log10(Q)             Ln(Q)
 Total Bot       0.360313D+02          1.556680          3.584389
 Total V=0       0.957182D+09          8.980994         20.679504
 Vib (Bot)       0.377069D-07         -7.423579        -17.093423
 Vib (V=0)       0.100169D+01          0.000735          0.001691
 Electronic      0.100000D+01          0.000000          0.000000
 Translational   0.778822D+07          6.891438         15.868123
 Rotational      0.122694D+03          2.088822          4.809690
 ***** Axes restored to original set *****
 -------------------------------------------------------------------
 Center     Atomic                   Forces (Hartrees/Bohr)
 Number     Number              X              Y              Z
 -------------------------------------------------------------------
    1         16           0.000000000    0.000000000   -0.000156973
    2          1           0.000000000    0.000002141    0.000078486
    3          1           0.000000000   -0.000002141    0.000078486
 -------------------------------------------------------------------
 Cartesian Forces:  Max     0.000156973 RMS     0.000064092

 GradGradGradGradGradGradGradGradGradGradGradGradGradGradGradGradGradGrad
 Berny optimization.
 Internal  Forces:  Max     0.000148079 RMS     0.000095421
 Search for a local minimum.
 Step number   1 out of a maximum of   2
 All quantities printed in internal units (Hartrees-Bohrs-Radians)
 Second derivative matrix not updated -- analytic derivatives used.
 The second derivative matrix:
                          R1        R2        A1
           R1           0.30703
           R2          -0.00055   0.30703
           A1           0.00868   0.00868   0.20442
     Eigenvalues ---    0.20297   0.30758   0.30794
 Angle between quadratic step and forces=   6.39 degrees.
 Linear search not attempted -- first point.
 Iteration  1 RMS(Cart)=  0.00055617 RMS(Int)=  0.00000014
 Iteration  2 RMS(Cart)=  0.00000015 RMS(Int)=  0.00000000
 Variable       Old X    -DE/DX   Delta X   Delta X   Delta X     New X
                                 (Linear)    (Quad)   (Total)
    R1        2.51356  -0.00005   0.00000  -0.00019  -0.00019   2.51337
    R2        2.51356  -0.00005   0.00000  -0.00019  -0.00019   2.51337
    A1        1.64255   0.00015   0.00000   0.00074   0.00074   1.64329
         Item               Value     Threshold  Converged?
 Maximum Force            0.000148     0.000450     YES
 RMS     Force            0.000095     0.000300     YES
 Maximum Displacement     0.000541     0.001800     YES
 RMS     Displacement     0.000556     0.001200     YES
 Predicted change in Energy=-6.470803D-08
 Optimization completed.
    -- Stationary point found.
                           ----------------------------
                           !   Optimized Parameters   !
                           ! (Angstroms and Degrees)  !
 --------------------------                            --------------------------
 ! Name  Definition              Value          Derivative Info.                !
 --------------------------------------------------------------------------------
 ! R1    R(1,2)                  1.3301         -DE/DX =   -0.0001              !
 ! R2    R(1,3)                  1.3301         -DE/DX =   -0.0001              !
 ! A1    A(2,1,3)               94.1111         -DE/DX =    0.0001              !
 --------------------------------------------------------------------------------
 GradGradGradGradGradGradGradGradGradGradGradGradGradGradGradGradGradGrad

 1|1|UNPC-UNK|Freq|UHF|6-31(d',p')|H2S1|PCUSER|14-Jun-2017|0||#N GEOM=A
 LLCHECK GUESS=READ SCRF=CHECK GENCHK UHF/6-31(D',P') FREQ||Optimizacio
 n geometria con prueba inicial H2S Singlete RHF en 6-31G||0,1|S,0.,0.,
 0.1006883751|H,0.,0.9736667471,-0.8055070009|H,0.,-0.9736667471,-0.805
 5070009||Version=x86-Win32-G03RevB.03|State=1-A1|HF=-398.6760496|S2=0.
 |S2-1=0.|S2A=0.|RMSD=4.775e-010|RMSF=6.409e-005|Dipole=0.,0.,-0.525433
 9|DipoleDeriv=-0.3068297,0.,0.,0.,-0.0561653,0.,0.,0.,0.1431564,0.1534
 149,0.,0.,0.,0.0280826,-0.0190607,0.,0.1166472,-0.0715782,0.1534149,0.
 ,0.,0.,0.0280826,0.0190607,0.,-0.1166472,-0.0715782|Polar=11.5153154,0
 .,17.8910867,0.,0.,15.2731014|PolarDeriv=0.,0.,0.,2.1943774,0.,0.,0.,0
 .,0.,0.,8.3161109,0.,-1.5209834,0.,5.2908242,0.,0.,13.5186994,0.,1.732
 581,0.,-1.0971887,0.,0.,-1.1975606,0.,7.1721691,0.,-4.1580555,1.550677
 3,0.7604917,0.,-2.6454121,0.,4.5813414,-6.7593497,0.,-1.732581,0.,-1.0
 971887,0.,0.,1.1975606,0.,-7.1721691,0.,-4.1580555,-1.5506773,0.760491
 7,0.,-2.6454121,0.,-4.5813414,-6.7593497|HyperPolar=0.,0.,0.,0.,0.2745
 943,0.,-18.5911413,0.,0.,-3.5526663|PG=C02V [C2(S1),SGV(H2)]|NImag=0||
 0.00009166,0.,0.32969896,0.,0.,0.34006058,-0.00004583,0.,0.,0.00002233
 ,0.,-0.16484948,0.12006900,0.,0.18301832,0.,0.15338339,-0.17003029,0.,
 -0.13672619,0.15639182,-0.00004583,0.,0.,0.00002350,0.,0.,0.00002233,0
 .,-0.16484948,-0.12006900,0.,-0.01816884,-0.01665719,0.,0.18301832,0.,
 -0.15338339,-0.17003029,0.,0.01665719,0.01363847,0.,0.13672619,0.15639
 182||0.,0.,0.00015697,0.,-0.00000214,-0.00007849,0.,0.00000214,-0.0000
 7849|||@


 IT MATTERS NOT HOW DEEP YOU PLOW,
 BUT HOW LONG YOU STAY IN THE FURROW.
 Job cpu time:  0 days  0 hours  0 minutes  4.0 seconds.
 File lengths (MBytes):  RWF=     11 Int=      0 D2E=      0 Chk=      4 Scr=      1
 Normal termination of Gaussian 03 at Wed Jun 14 12:08:40 2017.
