 Entering Link 1 = C:\G03W\l1.exe PID=      3532.
  
 Copyright (c) 1988,1990,1992,1993,1995,1998,2003, Gaussian, Inc.
                  All Rights Reserved.
  
 This is the Gaussian(R) 03 program.  It is based on the
 the Gaussian(R) 98 system (copyright 1998, Gaussian, Inc.),
 the Gaussian(R) 94 system (copyright 1995, Gaussian, Inc.),
 the Gaussian 92(TM) system (copyright 1992, Gaussian, Inc.),
 the Gaussian 90(TM) system (copyright 1990, Gaussian, Inc.),
 the Gaussian 88(TM) system (copyright 1988, Gaussian, Inc.),
 the Gaussian 86(TM) system (copyright 1986, Carnegie Mellon
 University), and the Gaussian 82(TM) system (copyright 1983,
 Carnegie Mellon University). Gaussian is a federally registered
 trademark of Gaussian, Inc.
  
 This software contains proprietary and confidential information,
 including trade secrets, belonging to Gaussian, Inc.
  
 This software is provided under written license and may be
 used, copied, transmitted, or stored only in accord with that
 written license.
  
 The following legend is applicable only to US Government
 contracts under DFARS:
  
                    RESTRICTED RIGHTS LEGEND
  
 Use, duplication or disclosure by the US Government is subject
 to restrictions as set forth in subparagraph (c)(1)(ii) of the
 Rights in Technical Data and Computer Software clause at DFARS
 252.227-7013.
  
 Gaussian, Inc.
 Carnegie Office Park, Building 6, Pittsburgh, PA 15106 USA
  
 The following legend is applicable only to US Government
 contracts under FAR:
  
                    RESTRICTED RIGHTS LEGEND
  
 Use, reproduction and disclosure by the US Government is subject
 to restrictions as set forth in subparagraph (c) of the
 Commercial Computer Software - Restricted Rights clause at FAR
 52.227-19.
  
 Gaussian, Inc.
 Carnegie Office Park, Building 6, Pittsburgh, PA 15106 USA
  
  
 ---------------------------------------------------------------
 Warning -- This program may not be used in any manner that
 competes with the business of Gaussian, Inc. or will provide
 assistance to any competitor of Gaussian, Inc.  The licensee
 of this program is prohibited from giving any competitor of
 Gaussian, Inc. access to this program.  By using this program,
 the user acknowledges that Gaussian, Inc. is engaged in the
 business of creating and licensing software in the field of
 computational chemistry and represents and warrants to the
 licensee that it is not a competitor of Gaussian, Inc. and that
 it will not use this program in any manner prohibited above.
 ---------------------------------------------------------------
  

 Cite this work as:
 Gaussian 03, Revision B.03,
 M. J. Frisch, G. W. Trucks, H. B. Schlegel, G. E. Scuseria, 
 M. A. Robb, J. R. Cheeseman, J. A. Montgomery, Jr., T. Vreven, 
 K. N. Kudin, J. C. Burant, J. M. Millam, S. S. Iyengar, J. Tomasi, 
 V. Barone, B. Mennucci, M. Cossi, G. Scalmani, N. Rega, 
 G. A. Petersson, H. Nakatsuji, M. Hada, M. Ehara, K. Toyota, 
 R. Fukuda, J. Hasegawa, M. Ishida, T. Nakajima, Y. Honda, O. Kitao, 
 H. Nakai, M. Klene, X. Li, J. E. Knox, H. P. Hratchian, J. B. Cross, 
 C. Adamo, J. Jaramillo, R. Gomperts, R. E. Stratmann, O. Yazyev, 
 A. J. Austin, R. Cammi, C. Pomelli, J. W. Ochterski, P. Y. Ayala, 
 K. Morokuma, G. A. Voth, P. Salvador, J. J. Dannenberg, 
 V. G. Zakrzewski, S. Dapprich, A. D. Daniels, M. C. Strain, 
 O. Farkas, D. K. Malick, A. D. Rabuck, K. Raghavachari, 
 J. B. Foresman, J. V. Ortiz, Q. Cui, A. G. Baboul, S. Clifford, 
 J. Cioslowski, B. B. Stefanov, G. Liu, A. Liashenko, P. Piskorz, 
 I. Komaromi, R. L. Martin, D. J. Fox, T. Keith, M. A. Al-Laham, 
 C. Y. Peng, A. Nanayakkara, M. Challacombe, P. M. W. Gill, 
 B. Johnson, W. Chen, M. W. Wong, C. Gonzalez, and J. A. Pople, 
 Gaussian, Inc., Pittsburgh PA, 2003.
 
 *********************************************
 Gaussian 03:  x86-Win32-G03RevB.03 4-May-2003
                  19-Jun-2017 
 *********************************************
 % Chk=H2S-3-21g
 Default route:  MaxDisk=2000MB
 --------------------
 # rhf/3-21g pop=full
 --------------------
 1/38=1/1;
 2/17=6,18=5,40=1/2;
 3/5=5,11=1,16=1,25=1,30=1/1,2,3;
 4/7=1/1;
 5/5=2,32=1,38=5/2;
 6/7=3,28=1/1;
 99/5=1,9=1/99;
 -------------------
 RHF en 3-21g de H2S
 -------------------
 Symbolic Z-matrix:
 Charge =  0 Multiplicity = 1
 S1
 H2                   1     1.336 
 H3                   1     1.336    2     92.11 
 
                          Input orientation:                          
 ---------------------------------------------------------------------
 Center     Atomic     Atomic              Coordinates (Angstroms)
 Number     Number      Type              X           Y           Z
 ---------------------------------------------------------------------
    1         16             0        0.000000    0.000000    0.000000
    2          1             0        0.000000    0.000000    1.336000
    3          1             0        1.335094    0.000000   -0.049189
 ---------------------------------------------------------------------
                    Distance matrix (angstroms):
                    1          2          3
     1  S    0.000000
     2  H    1.336000   0.000000
     3  H    1.336000   1.923857   0.000000
 Stoichiometry    H2S
 Framework group  C2V[C2(S),SGV(H2)]
 Deg. of freedom     2
 Full point group                 C2V     NOp   4
 Largest Abelian subgroup         C2V     NOp   4
 Largest concise Abelian subgroup C2      NOp   2
                         Standard orientation:                         
 ---------------------------------------------------------------------
 Center     Atomic     Atomic              Coordinates (Angstroms)
 Number     Number      Type              X           Y           Z
 ---------------------------------------------------------------------
    1         16             0        0.000000    0.000000    0.103016
    2          1             0        0.000000    0.961928   -0.824125
    3          1             0        0.000000   -0.961928   -0.824125
 ---------------------------------------------------------------------
 Rotational constants (GHZ):    310.0716863    270.9670960    144.6017494
 Standard basis: 3-21G (6D, 7F)
 There are     9 symmetry adapted basis functions of A1  symmetry.
 There are     0 symmetry adapted basis functions of A2  symmetry.
 There are     3 symmetry adapted basis functions of B1  symmetry.
 There are     5 symmetry adapted basis functions of B2  symmetry.
 Integral buffers will be    262144 words long.
 Raffenetti 1 integral format.
 Two-electron integral symmetry is turned on.
    17 basis functions,    33 primitive gaussians,    17 cartesian basis functions
     9 alpha electrons        9 beta electrons
       nuclear repulsion energy        12.9499637920 Hartrees.
 NAtoms=    3 NActive=    3 NUniq=    2 SFac= 2.76D+00 NAtFMM=   60 Big=F
 One-electron integrals computed using PRISM.
 NBasis=    17 RedAO= T  NBF=     9     0     3     5
 NBsUse=    17 1.00D-06 NBFU=     9     0     3     5
 Harris functional with IExCor=  205 diagonalized for initial guess.
 ExpMin= 1.42D-01 ExpMax= 1.21D+03 ExpMxC= 1.21D+03 IAcc=1 IRadAn=         1 AccDes= 1.00D-06
 HarFok:  IExCor= 205 AccDes= 1.00D-06 IRadAn=         1 IDoV=1
 ScaDFX=  1.000000  1.000000  1.000000  1.000000
 Initial guess orbital symmetries:
       Occupied  (A1) (A1) (B2) (A1) (B1) (A1) (B2) (A1) (B1)
       Virtual   (B2) (A1) (B2) (A1) (B1) (A1) (A1) (B2)
 The electronic state of the initial guess is 1-A1.
 Warning!  Cutoffs for single-point calculations used.
 Requested convergence on RMS density matrix=1.00D-04 within 128 cycles.
 Requested convergence on MAX density matrix=1.00D-02.
 Requested convergence on             energy=5.00D-05.
 No special actions if energy rises.
 Keep R1 integrals in memory in canonical form, NReq=      433332.
 SCF Done:  E(RHF) =  -396.703957116     A.U. after    5 cycles
             Convg  =    0.1602D-04             -V/T =  2.0004
             S**2   =   0.0000

 **********************************************************************

            Population analysis using the SCF density.

 **********************************************************************

 Orbital symmetries:
       Occupied  (A1) (A1) (B2) (A1) (B1) (A1) (B2) (A1) (B1)
       Virtual   (B2) (A1) (B2) (A1) (A1) (B1) (A1) (B2)
 The electronic state is 1-A1.
 Alpha  occ. eigenvalues --  -91.31955  -8.92265  -6.59767  -6.59584  -6.59227
 Alpha  occ. eigenvalues --   -1.00328  -0.59226  -0.49390  -0.39279
 Alpha virt. eigenvalues --    0.18106   0.21075   0.66603   0.68035   0.69569
 Alpha virt. eigenvalues --    0.70576   1.16059   1.19645
     Molecular Orbital Coefficients
                           1         2         3         4         5
                        (A1)--O   (A1)--O   (B2)--O   (A1)--O   (B1)--O
     EIGENVALUES --   -91.31955  -8.92265  -6.59767  -6.59584  -6.59227
   1 1   S  1S          0.98644  -0.30125   0.00000  -0.00464   0.00000
   2        2S          0.05119   0.98845   0.00000   0.01609   0.00000
   3        2PX         0.00000   0.00000   0.00000   0.00000   0.97443
   4        2PY         0.00000   0.00000   0.97304   0.00000   0.00000
   5        2PZ        -0.00021  -0.01330   0.00000   0.97322   0.00000
   6        3S         -0.01709   0.13215   0.00000  -0.00476   0.00000
   7        3PX         0.00000   0.00000   0.00000   0.00000   0.08036
   8        3PY         0.00000   0.00000   0.08468   0.00000   0.00000
   9        3PZ         0.00048  -0.00553   0.00000   0.08395   0.00000
  10        4S          0.01116  -0.07024   0.00000   0.01294   0.00000
  11        4PX         0.00000   0.00000   0.00000   0.00000  -0.02312
  12        4PY         0.00000   0.00000  -0.02989   0.00000   0.00000
  13        4PZ        -0.00228   0.01569   0.00000  -0.03090   0.00000
  14 2   H  1S          0.00090  -0.00466  -0.00494   0.00433   0.00000
  15        2S         -0.00286   0.01820   0.00895  -0.01014   0.00000
  16 3   H  1S          0.00090  -0.00466   0.00494   0.00433   0.00000
  17        2S         -0.00286   0.01820  -0.00895  -0.01014   0.00000
                           6         7         8         9        10
                        (A1)--O   (B2)--O   (A1)--O   (B1)--O   (B2)--V
     EIGENVALUES --    -1.00328  -0.59226  -0.49390  -0.39279   0.18106
   1 1   S  1S          0.06884   0.00000   0.03096   0.00000   0.00000
   2        2S         -0.39363   0.00000  -0.18373   0.00000   0.00000
   3        2PX         0.00000   0.00000   0.00000  -0.26298   0.00000
   4        2PY         0.00000  -0.20483   0.00000   0.00000  -0.15634
   5        2PZ         0.05907   0.00000  -0.21745   0.00000   0.00000
   6        3S          0.48673   0.00000   0.22046   0.00000   0.00000
   7        3PX         0.00000   0.00000   0.00000   0.55818   0.00000
   8        3PY         0.00000   0.42662   0.00000   0.00000   0.31821
   9        3PZ        -0.11935   0.00000   0.45279   0.00000   0.00000
  10        4S          0.43517   0.00000   0.42144   0.00000   0.00000
  11        4PX         0.00000   0.00000   0.00000   0.57384   0.00000
  12        4PY         0.00000   0.19107   0.00000   0.00000   1.15483
  13        4PZ        -0.05371   0.00000   0.32264   0.00000   0.00000
  14 2   H  1S          0.13812   0.22659  -0.14257   0.00000  -0.13678
  15        2S          0.05360   0.28262  -0.20075   0.00000  -1.03690
  16 3   H  1S          0.13812  -0.22659  -0.14257   0.00000   0.13678
  17        2S          0.05360  -0.28262  -0.20075   0.00000   1.03690
                          11        12        13        14        15
                        (A1)--V   (B2)--V   (A1)--V   (A1)--V   (B1)--V
     EIGENVALUES --     0.21075   0.66603   0.68035   0.69569   0.70576
   1 1   S  1S          0.03228   0.00000  -0.06149   0.00713   0.00000
   2        2S         -0.20158   0.00000   0.32056  -0.02494   0.00000
   3        2PX         0.00000   0.00000   0.00000   0.00000  -0.35132
   4        2PY         0.00000   0.32243   0.00000   0.00000   0.00000
   5        2PZ         0.13567   0.00000   0.09792   0.30995   0.00000
   6        3S          0.22458   0.00000  -1.97809   0.49743   0.00000
   7        3PX         0.00000   0.00000   0.00000   0.00000   1.25079
   8        3PY         0.00000  -1.17689   0.00000   0.00000   0.00000
   9        3PZ        -0.29736   0.00000  -0.28655  -1.16247   0.00000
  10        4S          1.35115   0.00000   2.74196  -1.10212   0.00000
  11        4PX         0.00000   0.00000   0.00000   0.00000  -1.17334
  12        4PY         0.00000   1.26334   0.00000   0.00000   0.00000
  13        4PZ        -1.15418   0.00000  -0.44497   1.63916   0.00000
  14 2   H  1S         -0.07888  -0.21744  -0.11997   0.22368   0.00000
  15        2S         -1.30684   0.01319  -0.73190   0.44329   0.00000
  16 3   H  1S         -0.07888   0.21744  -0.11997   0.22368   0.00000
  17        2S         -1.30684  -0.01319  -0.73190   0.44329   0.00000
                          16        17
                        (A1)--V   (B2)--V
     EIGENVALUES --     1.16059   1.19645
   1 1   S  1S         -0.02303   0.00000
   2        2S          0.12665   0.00000
   3        2PX         0.00000   0.00000
   4        2PY         0.00000  -0.17117
   5        2PZ        -0.15618   0.00000
   6        3S         -0.55777   0.00000
   7        3PX         0.00000   0.00000
   8        3PY         0.00000   0.52933
   9        3PZ         0.47785   0.00000
  10        4S          1.40158   0.00000
  11        4PX         0.00000   0.00000
  12        4PY         0.00000  -0.86464
  13        4PZ        -0.79816   0.00000
  14 2   H  1S          0.89053  -0.91147
  15        2S         -1.25727   1.27053
  16 3   H  1S          0.89053   0.91147
  17        2S         -1.25727  -1.27053
      DENSITY MATRIX.
                           1         2         3         4         5
   1 1   S  1S          2.13906
   2        2S         -0.56027   2.33724
   3        2PX         0.00000   0.00000   2.03733
   4        2PY         0.00000   0.00000   0.00000   1.97752
   5        2PZ        -0.00675   0.03842   0.00000   0.00000   1.99620
   6        3S         -0.03263  -0.20485   0.00000   0.00000  -0.05114
   7        3PX         0.00000   0.00000  -0.13696   0.00000   0.00000
   8        3PY         0.00000   0.00000   0.00000  -0.00997   0.00000
   9        3PZ         0.01510  -0.08061   0.00000   0.00000  -0.04746
  10        4S          0.15023  -0.63475   0.00000   0.00000  -0.10483
  11        4PX         0.00000   0.00000  -0.34687   0.00000   0.00000
  12        4PY         0.00000   0.00000   0.00000  -0.13644   0.00000
  13        4PZ        -0.00108  -0.04648   0.00000   0.00000  -0.20723
  14 2   H  1S          0.01474  -0.06532   0.00000  -0.10244   0.08686
  15        2S         -0.02157   0.06693   0.00000  -0.09836   0.07341
  16 3   H  1S          0.01474  -0.06532   0.00000   0.10244   0.08686
  17        2S         -0.02157   0.06693   0.00000   0.09836   0.07341
                           6         7         8         9        10
   6        3S          0.60658
   7        3PX         0.00000   0.63604
   8        3PY         0.00000   0.00000   0.37835
   9        3PZ         0.08118   0.00000   0.00000   0.45269
  10        4S          0.59037   0.00000   0.00000   0.28074   0.74442
  11        4PX         0.00000   0.63689   0.00000   0.00000   0.00000
  12        4PY         0.00000   0.00000   0.15797   0.00000   0.00000
  13        4PZ         0.09449   0.00000   0.00000   0.29963   0.22214
  14 2   H  1S          0.07029   0.00000   0.19249  -0.16130   0.00083
  15        2S         -0.03133   0.00000   0.24266  -0.19649  -0.12544
  16 3   H  1S          0.07029   0.00000  -0.19249  -0.16130   0.00083
  17        2S         -0.03133   0.00000  -0.24266  -0.19649  -0.12544
                          11        12        13        14        15
  11        4PX         0.65964
  12        4PY         0.00000   0.07480
  13        4PZ         0.00000   0.00000   0.21637
  14 2   H  1S          0.00000   0.08688  -0.10725   0.18162
  15        2S          0.00000   0.10746  -0.13408   0.19977   0.24713
  16 3   H  1S          0.00000  -0.08688  -0.10725  -0.02384  -0.05620
  17        2S          0.00000  -0.10746  -0.13408  -0.05620  -0.07268
                          16        17
  16 3   H  1S          0.18162
  17        2S          0.19977   0.24713
    Full Mulliken population analysis:
                           1         2         3         4         5
   1 1   S  1S          2.13906
   2        2S         -0.14318   2.33724
   3        2PX         0.00000   0.00000   2.03733
   4        2PY         0.00000   0.00000   0.00000   1.97752
   5        2PZ         0.00000   0.00000   0.00000   0.00000   1.99620
   6        3S         -0.00165  -0.08362   0.00000   0.00000   0.00000
   7        3PX         0.00000   0.00000  -0.04288   0.00000   0.00000
   8        3PY         0.00000   0.00000   0.00000  -0.00312   0.00000
   9        3PZ         0.00000   0.00000   0.00000   0.00000  -0.01486
  10        4S          0.00498  -0.15884   0.00000   0.00000   0.00000
  11        4PX         0.00000   0.00000  -0.02460   0.00000   0.00000
  12        4PY         0.00000   0.00000   0.00000  -0.00967   0.00000
  13        4PZ         0.00000   0.00000   0.00000   0.00000  -0.01469
  14 2   H  1S          0.00001  -0.00063   0.00000  -0.00088  -0.00072
  15        2S         -0.00027   0.00658   0.00000  -0.00238  -0.00171
  16 3   H  1S          0.00001  -0.00063   0.00000  -0.00088  -0.00072
  17        2S         -0.00027   0.00658   0.00000  -0.00238  -0.00171
                           6         7         8         9        10
   6        3S          0.60658
   7        3PX         0.00000   0.63604
   8        3PY         0.00000   0.00000   0.37835
   9        3PZ         0.00000   0.00000   0.00000   0.45269
  10        4S          0.48836   0.00000   0.00000   0.00000   0.74442
  11        4PX         0.00000   0.40097   0.00000   0.00000   0.00000
  12        4PY         0.00000   0.00000   0.09945   0.00000   0.00000
  13        4PZ         0.00000   0.00000   0.00000   0.18864   0.00000
  14 2   H  1S          0.01082   0.00000   0.03804   0.03072   0.00022
  15        2S         -0.01257   0.00000   0.05965   0.04656  -0.07440
  16 3   H  1S          0.01082   0.00000   0.03804   0.03072   0.00022
  17        2S         -0.01257   0.00000   0.05965   0.04656  -0.07440
                          11        12        13        14        15
  11        4PX         0.65964
  12        4PY         0.00000   0.07480
  13        4PZ         0.00000   0.00000   0.21637
  14 2   H  1S          0.00000   0.02662   0.03168   0.18162
  15        2S          0.00000   0.04920   0.05916   0.12903   0.24713
  16 3   H  1S          0.00000   0.02662   0.03168  -0.00008  -0.00493
  17        2S          0.00000   0.04920   0.05916  -0.00493  -0.02166
                          16        17
  16 3   H  1S          0.18162
  17        2S          0.12903   0.24713
     Gross orbital populations:
                           1
   1 1   S  1S          1.99867
   2        2S          1.96350
   3        2PX         1.96985
   4        2PY         1.95819
   5        2PZ         1.96178
   6        3S          1.00616
   7        3PX         0.99413
   8        3PY         0.67007
   9        3PZ         0.78104
  10        4S          0.93055
  11        4PX         1.03602
  12        4PY         0.31622
  13        4PZ         0.57199
  14 2   H  1S          0.44152
  15        2S          0.47939
  16 3   H  1S          0.44152
  17        2S          0.47939
          Condensed to atoms (all electrons):
              1          2          3
     1  S   15.626784   0.265697   0.265697
     2  H    0.265697   0.686815  -0.031600
     3  H    0.265697  -0.031600   0.686815
 Mulliken atomic charges:
              1
     1  S   -0.158177
     2  H    0.079089
     3  H    0.079089
 Sum of Mulliken charges=   0.00000
 Atomic charges with hydrogens summed into heavy atoms:
              1
     1  S    0.000000
     2  H    0.000000
     3  H    0.000000
 Sum of Mulliken charges=   0.00000
 Electronic spatial extent (au):  <R**2>=    44.6741
 Charge=     0.0000 electrons
 Dipole moment (field-independent basis, Debye):
    X=     0.0000    Y=     0.0000    Z=    -1.8103  Tot=     1.8103
 Quadrupole moment (field-independent basis, Debye-Ang):
   XX=   -16.7595   YY=   -12.8369   ZZ=   -14.2628
   XY=     0.0000   XZ=     0.0000   YZ=     0.0000
 Traceless Quadrupole moment (field-independent basis, Debye-Ang):
   XX=    -2.1398   YY=     1.7828   ZZ=     0.3569
   XY=     0.0000   XZ=     0.0000   YZ=     0.0000
 Octapole moment (field-independent basis, Debye-Ang**2):
  XXX=     0.0000  YYY=     0.0000  ZZZ=    -1.4066  XYY=     0.0000
  XXY=     0.0000  XXZ=    -0.6171  XZZ=     0.0000  YZZ=     0.0000
  YYZ=    -0.5257  XYZ=     0.0000
 Hexadecapole moment (field-independent basis, Debye-Ang**3):
 XXXX=   -22.6282 YYYY=   -23.6508 ZZZZ=   -25.1603 XXXY=     0.0000
 XXXZ=     0.0000 YYYX=     0.0000 YYYZ=     0.0000 ZZZX=     0.0000
 ZZZY=     0.0000 XXYY=    -7.8627 XXZZ=    -8.1076 YYZZ=    -7.6769
 XXYZ=     0.0000 YYXZ=     0.0000 ZZXY=     0.0000
 N-N= 1.294996379203D+01 E-N=-9.708206342865D+02  KE= 3.965331505390D+02
 Symmetry A1   KE= 3.210459619965D+02
 Symmetry A2   KE= 0.000000000000D+00
 Symmetry B1   KE= 3.819080781443D+01
 Symmetry B2   KE= 3.729638072804D+01
 Orbital energies and kinetic energies (alpha):
                           1         2
       1  (A1)--O     -91.31955 120.25449
       2  (A1)--O      -8.92265  19.17737
       3  (B2)--O      -6.59767  17.32977
       4  (A1)--O      -6.59584  17.33926
       5  (B1)--O      -6.59227  17.37052
       6  (A1)--O      -1.00328   2.05361
       7  (B2)--O      -0.59226   1.31842
       8  (A1)--O      -0.49390   1.69825
       9  (B1)--O      -0.39279   1.72488
      10  (B2)--V       0.18106   1.06100
      11  (A1)--V       0.21075   1.31264
      12  (B2)--V       0.66603   2.66962
      13  (A1)--V       0.68035   2.39420
      14  (A1)--V       0.69569   2.57015
      15  (B1)--V       0.70576   3.01586
      16  (A1)--V       1.16059   2.78624
      17  (B2)--V       1.19645   2.63227
 Total kinetic energy from orbitals= 3.965331505390D+02
 1|1|UNPC-UNK|SP|RHF|3-21G|H2S1|PCUSER|19-Jun-2017|0||# RHF/3-21G POP=F
 ULL||RHF en 3-21g de H2S||0,1|S|H,1,1.336|H,1,1.336,2,92.11||Version=x
 86-Win32-G03RevB.03|State=1-A1|HF=-396.7039571|RMSD=1.602e-005|Dipole=
 0.5128201,0.,0.4942742|PG=C02V [C2(S1),SGV(H2)]||@


 TRUST EVERYONE, BUT CUT THE CARDS.
 Job cpu time:  0 days  0 hours  0 minutes  1.0 seconds.
 File lengths (MBytes):  RWF=     11 Int=      0 D2E=      0 Chk=      7 Scr=      1
 Normal termination of Gaussian 03 at Mon Jun 19 11:19:23 2017.
