 Entering Link 1 = C:\G03W\l1.exe PID=      2296.
  
 Copyright (c) 1988,1990,1992,1993,1995,1998,2003, Gaussian, Inc.
                  All Rights Reserved.
  
 This is the Gaussian(R) 03 program.  It is based on the
 the Gaussian(R) 98 system (copyright 1998, Gaussian, Inc.),
 the Gaussian(R) 94 system (copyright 1995, Gaussian, Inc.),
 the Gaussian 92(TM) system (copyright 1992, Gaussian, Inc.),
 the Gaussian 90(TM) system (copyright 1990, Gaussian, Inc.),
 the Gaussian 88(TM) system (copyright 1988, Gaussian, Inc.),
 the Gaussian 86(TM) system (copyright 1986, Carnegie Mellon
 University), and the Gaussian 82(TM) system (copyright 1983,
 Carnegie Mellon University). Gaussian is a federally registered
 trademark of Gaussian, Inc.
  
 This software contains proprietary and confidential information,
 including trade secrets, belonging to Gaussian, Inc.
  
 This software is provided under written license and may be
 used, copied, transmitted, or stored only in accord with that
 written license.
  
 The following legend is applicable only to US Government
 contracts under DFARS:
  
                    RESTRICTED RIGHTS LEGEND
  
 Use, duplication or disclosure by the US Government is subject
 to restrictions as set forth in subparagraph (c)(1)(ii) of the
 Rights in Technical Data and Computer Software clause at DFARS
 252.227-7013.
  
 Gaussian, Inc.
 Carnegie Office Park, Building 6, Pittsburgh, PA 15106 USA
  
 The following legend is applicable only to US Government
 contracts under FAR:
  
                    RESTRICTED RIGHTS LEGEND
  
 Use, reproduction and disclosure by the US Government is subject
 to restrictions as set forth in subparagraph (c) of the
 Commercial Computer Software - Restricted Rights clause at FAR
 52.227-19.
  
 Gaussian, Inc.
 Carnegie Office Park, Building 6, Pittsburgh, PA 15106 USA
  
  
 ---------------------------------------------------------------
 Warning -- This program may not be used in any manner that
 competes with the business of Gaussian, Inc. or will provide
 assistance to any competitor of Gaussian, Inc.  The licensee
 of this program is prohibited from giving any competitor of
 Gaussian, Inc. access to this program.  By using this program,
 the user acknowledges that Gaussian, Inc. is engaged in the
 business of creating and licensing software in the field of
 computational chemistry and represents and warrants to the
 licensee that it is not a competitor of Gaussian, Inc. and that
 it will not use this program in any manner prohibited above.
 ---------------------------------------------------------------
  

 Cite this work as:
 Gaussian 03, Revision B.03,
 M. J. Frisch, G. W. Trucks, H. B. Schlegel, G. E. Scuseria, 
 M. A. Robb, J. R. Cheeseman, J. A. Montgomery, Jr., T. Vreven, 
 K. N. Kudin, J. C. Burant, J. M. Millam, S. S. Iyengar, J. Tomasi, 
 V. Barone, B. Mennucci, M. Cossi, G. Scalmani, N. Rega, 
 G. A. Petersson, H. Nakatsuji, M. Hada, M. Ehara, K. Toyota, 
 R. Fukuda, J. Hasegawa, M. Ishida, T. Nakajima, Y. Honda, O. Kitao, 
 H. Nakai, M. Klene, X. Li, J. E. Knox, H. P. Hratchian, J. B. Cross, 
 C. Adamo, J. Jaramillo, R. Gomperts, R. E. Stratmann, O. Yazyev, 
 A. J. Austin, R. Cammi, C. Pomelli, J. W. Ochterski, P. Y. Ayala, 
 K. Morokuma, G. A. Voth, P. Salvador, J. J. Dannenberg, 
 V. G. Zakrzewski, S. Dapprich, A. D. Daniels, M. C. Strain, 
 O. Farkas, D. K. Malick, A. D. Rabuck, K. Raghavachari, 
 J. B. Foresman, J. V. Ortiz, Q. Cui, A. G. Baboul, S. Clifford, 
 J. Cioslowski, B. B. Stefanov, G. Liu, A. Liashenko, P. Piskorz, 
 I. Komaromi, R. L. Martin, D. J. Fox, T. Keith, M. A. Al-Laham, 
 C. Y. Peng, A. Nanayakkara, M. Challacombe, P. M. W. Gill, 
 B. Johnson, W. Chen, M. W. Wong, C. Gonzalez, and J. A. Pople, 
 Gaussian, Inc., Pittsburgh PA, 2003.
 
 *********************************************
 Gaussian 03:  x86-Win32-G03RevB.03 4-May-2003
                  19-Jun-2017 
 *********************************************
 %Chk=H2S-UHF-6-31g-SCAN-GEO-SYM
 Default route:  MaxDisk=2000MB
 ---------------------
 # uhf/6-31g guess=mix
 ---------------------
 1/38=1/1;
 2/17=6,18=5,40=1/2;
 3/5=1,6=6,11=2,16=1,25=1,30=1/1,2,3;
 4/7=2,9=2,13=1/1;
 5/5=2,32=1,38=5/2;
 6/7=2,8=2,9=2,10=2,28=1/1;
 99/5=1,9=1/99;
 --------------------------------------
 Disociacion simetrica UHF 6-31g de H2S
 --------------------------------------
 Symbolic Z-matrix:
 Charge =  0 Multiplicity = 1
 S
 H                    1    r
 H                    1    r        2    aHSH
       Variables:
  r                     6.                       
  aHSH                 92.11                     
 
                          Input orientation:                          
 ---------------------------------------------------------------------
 Center     Atomic     Atomic              Coordinates (Angstroms)
 Number     Number      Type              X           Y           Z
 ---------------------------------------------------------------------
    1         16             0        0.000000    0.000000    0.000000
    2          1             0        0.000000    0.000000    6.000000
    3          1             0        5.995932    0.000000   -0.220909
 ---------------------------------------------------------------------
                    Distance matrix (angstroms):
                    1          2          3
     1  S    0.000000
     2  H    6.000000   0.000000
     3  H    6.000000   8.640076   0.000000
 Stoichiometry    H2S
 Framework group  C2V[C2(S),SGV(H2)]
 Deg. of freedom     2
 Full point group                 C2V     NOp   4
 Largest Abelian subgroup         C2V     NOp   4
 Largest concise Abelian subgroup C2      NOp   2
                         Standard orientation:                         
 ---------------------------------------------------------------------
 Center     Atomic     Atomic              Coordinates (Angstroms)
 Number     Number      Type              X           Y           Z
 ---------------------------------------------------------------------
    1         16             0        0.000000    0.000000    0.462645
    2          1             0        0.000000    4.320038   -3.701160
    3          1             0        0.000000   -4.320038   -3.701160
 ---------------------------------------------------------------------
 Rotational constants (GHZ):     15.3734920     13.4346690      7.1694190
 Standard basis: 6-31G (6D, 7F)
 There are     9 symmetry adapted basis functions of A1  symmetry.
 There are     0 symmetry adapted basis functions of A2  symmetry.
 There are     3 symmetry adapted basis functions of B1  symmetry.
 There are     5 symmetry adapted basis functions of B2  symmetry.
 Integral buffers will be    262144 words long.
 Raffenetti 2 integral format.
 Two-electron integral symmetry is turned on.
    17 basis functions,    54 primitive gaussians,    17 cartesian basis functions
     9 alpha electrons        9 beta electrons
       nuclear repulsion energy         2.8835252710 Hartrees.
 NAtoms=    3 NActive=    3 NUniq=    2 SFac= 2.76D+00 NAtFMM=   60 Big=F
 One-electron integrals computed using PRISM.
 NBasis=    17 RedAO= T  NBF=     9     0     3     5
 NBsUse=    17 1.00D-06 NBFU=     9     0     3     5
 SCF N**3 symmetry information disabled.
 Harris functional with IExCor=  205 diagonalized for initial guess.
 ExpMin= 1.17D-01 ExpMax= 2.19D+04 ExpMxC= 3.30D+03 IAcc=1 IRadAn=         1 AccDes= 1.00D-06
 HarFok:  IExCor= 205 AccDes= 1.00D-06 IRadAn=         1 IDoV=1
 ScaDFX=  1.000000  1.000000  1.000000  1.000000
 Initial guess orbital symmetries:
 Alpha Orbitals:
       Occupied  (A1) (A1) (B1) (A1) (B2) (A1) (B1) (B2) (A1)
       Virtual   (A1) (B2) (A1) (A1) (B1) (B2) (B2) (A1)
 Beta  Orbitals:
       Occupied  (A1) (A1) (B1) (A1) (B2) (A1) (B1) (B2) (A1)
       Virtual   (A1) (B2) (A1) (A1) (B1) (B2) (B2) (A1)
 The electronic state of the initial guess is 1-A1.
 <S**2> of initial guess= 1.0000
 Warning!  Cutoffs for single-point calculations used.
 Requested convergence on RMS density matrix=1.00D-04 within 128 cycles.
 Requested convergence on MAX density matrix=1.00D-02.
 Requested convergence on             energy=5.00D-05.
 No special actions if energy rises.
 Keep R1 and R2 integrals in memory in canonical form, NReq=      445113.
 SCF Done:  E(UHF) =  -398.119772702     A.U. after    8 cycles
             Convg  =    0.6426D-04             -V/T =  1.9997
             S**2   =   0.0000
 Annihilation of the first spin contaminant:
 S**2 before annihilation     0.0000,   after     0.0000

 **********************************************************************

            Population analysis using the SCF density.

 **********************************************************************

 Orbital symmetries:
 Alpha Orbitals:
       Occupied  (A1) (A1) (A1) (B1) (B2) (A1) (B2) (B1) (A1)
       Virtual   (B2) (A1) (A1) (A1) (B2) (B1) (B2) (A1)
 Beta  Orbitals:
       Occupied  (A1) (A1) (A1) (B1) (B2) (A1) (B2) (B1) (A1)
       Virtual   (B2) (A1) (A1) (A1) (B2) (B1) (B2) (A1)
 The electronic state is 1-A1.
 Alpha  occ. eigenvalues --  -92.00874  -9.01781  -6.70112  -6.69384  -6.69384
 Alpha  occ. eigenvalues --   -0.88592  -0.40208  -0.40204  -0.23743
 Alpha virt. eigenvalues --   -0.17619  -0.06880   0.42144   0.52079   0.52097
 Alpha virt. eigenvalues --    0.52098   0.98263   0.98263
  Beta  occ. eigenvalues --  -92.00874  -9.01781  -6.70112  -6.69384  -6.69384
  Beta  occ. eigenvalues --   -0.88592  -0.40207  -0.40204  -0.23742
  Beta virt. eigenvalues --   -0.17619  -0.06880   0.42144   0.52079   0.52097
  Beta virt. eigenvalues --    0.52098   0.98263   0.98263
          Condensed to atoms (all electrons):
              1          2          3
     1  S   16.000015   0.000002   0.000002
     2  H    0.000002   0.999989   0.000000
     3  H    0.000002   0.000000   0.999989
 Mulliken atomic charges:
              1
     1  S   -0.000019
     2  H    0.000009
     3  H    0.000009
 Sum of Mulliken charges=   0.00000
 Atomic charges with hydrogens summed into heavy atoms:
              1
     1  S    0.000000
     2  H    0.000000
     3  H    0.000000
 Sum of Mulliken charges=   0.00000
          Atomic-Atomic Spin Densities.
              1          2          3
     1  S   -0.000001   0.000000   0.000000
     2  H    0.000000   0.000001   0.000000
     3  H    0.000000   0.000000   0.000001
 Mulliken atomic spin densities:
              1
     1  S   -0.000001
     2  H    0.000000
     3  H    0.000000
 Sum of Mulliken spin densities=   0.00000
 Electronic spatial extent (au):  <R**2>=   279.3686
 Charge=     0.0000 electrons
 Dipole moment (field-independent basis, Debye):
    X=     0.0000    Y=     0.0000    Z=    -0.0004  Tot=     0.0004
 Quadrupole moment (field-independent basis, Debye-Ang):
   XX=   -17.9803   YY=   -17.9784   ZZ=   -12.4763
   XY=     0.0000   XZ=     0.0000   YZ=     0.0000
 Traceless Quadrupole moment (field-independent basis, Debye-Ang):
   XX=    -1.8353   YY=    -1.8333   ZZ=     3.6687
   XY=     0.0000   XZ=     0.0000   YZ=     0.0000
 Octapole moment (field-independent basis, Debye-Ang**2):
  XXX=     0.0000  YYY=     0.0000  ZZZ=    19.9114  XYY=     0.0000
  XXY=     0.0000  XXZ=     4.0930  XZZ=     0.0000  YZZ=     0.0000
  YYZ=     4.0862  XYZ=     0.0000
 Hexadecapole moment (field-independent basis, Debye-Ang**3):
 XXXX=   -24.9971 YYYY=  -358.7411 ZZZZ=  -269.8914 XXXY=     0.0000
 XXXZ=     0.0000 YYYX=     0.0000 YYYZ=     0.0000 ZZZX=     0.0000
 ZZZY=     0.0000 XXYY=   -63.9623 XXZZ=   -50.3291 YYZZ=  -105.9327
 XXYZ=     0.0000 YYXZ=     0.0000 ZZXY=     0.0000
 N-N= 2.883525271026D+00 E-N=-9.541635038060D+02  KE= 3.982425450537D+02
                          Isotropic Fermi Contact Couplings
        Atom                 a.u.       MegaHertz       Gauss      10(-4) cm-1
     1  S(33)              0.00001       0.00217       0.00078       0.00073
     2  H(1)               0.00000       0.00186       0.00066       0.00062
     3  H(1)               0.00000       0.00186       0.00066       0.00062
 --------------------------------------------------------
       Center         ----  Spin Dipole Couplings  ----
                      3XX-RR        3YY-RR        3ZZ-RR
 --------------------------------------------------------
     1   Atom        0.000006      0.000010     -0.000016
     2   Atom        0.000000      0.000000      0.000000
     3   Atom        0.000000      0.000000      0.000000
 --------------------------------------------------------
                        XY            XZ            YZ
 --------------------------------------------------------
     1   Atom        0.000000      0.000000      0.000000
     2   Atom        0.000000      0.000000      0.000000
     3   Atom        0.000000      0.000000      0.000000
 --------------------------------------------------------


 ---------------------------------------------------------------------------------
              Anisotropic Spin Dipole Couplings in Principal Axis System
 ---------------------------------------------------------------------------------

       Atom             a.u.   MegaHertz   Gauss  10(-4) cm-1        Axes

              Baa     0.0000    -0.001     0.000     0.000  0.0000  0.0000  1.0000
     1 S(33)  Bbb     0.0000     0.000     0.000     0.000  1.0000  0.0000  0.0000
              Bcc     0.0000     0.000     0.000     0.000  0.0000  1.0000  0.0000
 
              Baa     0.0000     0.000     0.000     0.000  0.0000  0.3983  0.9173
     2 H(1)   Bbb     0.0000     0.000     0.000     0.000  1.0000  0.0000  0.0000
              Bcc     0.0000     0.000     0.000     0.000  0.0000  0.9173 -0.3983
 
              Baa     0.0000     0.000     0.000     0.000  0.0000 -0.3983  0.9173
     3 H(1)   Bbb     0.0000     0.000     0.000     0.000  1.0000  0.0000  0.0000
              Bcc     0.0000     0.000     0.000     0.000  0.0000  0.9173  0.3983
 

 ---------------------------------------------------------------------------------

 1|1|UNPC-UNK|SP|UHF|6-31G|H2S1|PCUSER|19-Jun-2017|0||# UHF/6-31G GUESS
 =MIX||Disociacion simetrica UHF 6-31g de H2S||0,1|S|H,1,6.|H,1,6.,2,92
 .11||Version=x86-Win32-G03RevB.03|State=1-A1|HF=-398.1197727|S2=0.|S2-
 1=0.|S2A=0.|RMSD=6.426e-005|Dipole=0.0001024,0.,0.0000987|PG=C02V [C2(
 S1),SGV(H2)]||@


 SOME PEOPLE TRY TO PULL THE WOOL OVER YOUR EYES
 USING THE WRONG YARN.
 Job cpu time:  0 days  0 hours  0 minutes  1.0 seconds.
 File lengths (MBytes):  RWF=     11 Int=      0 D2E=      0 Chk=     12 Scr=      1
 Normal termination of Gaussian 03 at Mon Jun 19 09:46:46 2017.
