 Entering Link 1 = C:\G03W\l1.exe PID=      6752.
  
 Copyright (c) 1988,1990,1992,1993,1995,1998,2003,2004, Gaussian, Inc.
                  All Rights Reserved.
  
 This is the Gaussian(R) 03 program.  It is based on the
 the Gaussian(R) 98 system (copyright 1998, Gaussian, Inc.),
 the Gaussian(R) 94 system (copyright 1995, Gaussian, Inc.),
 the Gaussian 92(TM) system (copyright 1992, Gaussian, Inc.),
 the Gaussian 90(TM) system (copyright 1990, Gaussian, Inc.),
 the Gaussian 88(TM) system (copyright 1988, Gaussian, Inc.),
 the Gaussian 86(TM) system (copyright 1986, Carnegie Mellon
 University), and the Gaussian 82(TM) system (copyright 1983,
 Carnegie Mellon University). Gaussian is a federally registered
 trademark of Gaussian, Inc.
  
 This software contains proprietary and confidential information,
 including trade secrets, belonging to Gaussian, Inc.
  
 This software is provided under written license and may be
 used, copied, transmitted, or stored only in accord with that
 written license.
  
 The following legend is applicable only to US Government
 contracts under FAR:
  
                    RESTRICTED RIGHTS LEGEND
  
 Use, reproduction and disclosure by the US Government is
 subject to restrictions as set forth in subparagraphs (a)
 and (c) of the Commercial Computer Software - Restricted
 Rights clause in FAR 52.227-19.
  
 Gaussian, Inc.
 340 Quinnipiac St., Bldg. 40, Wallingford CT 06492
  
  
 ---------------------------------------------------------------
 Warning -- This program may not be used in any manner that
 competes with the business of Gaussian, Inc. or will provide
 assistance to any competitor of Gaussian, Inc.  The licensee
 of this program is prohibited from giving any competitor of
 Gaussian, Inc. access to this program.  By using this program,
 the user acknowledges that Gaussian, Inc. is engaged in the
 business of creating and licensing software in the field of
 computational chemistry and represents and warrants to the
 licensee that it is not a competitor of Gaussian, Inc. and that
 it will not use this program in any manner prohibited above.
 ---------------------------------------------------------------
  

 Cite this work as:
 Gaussian 03, Revision C.01,
 M. J. Frisch, G. W. Trucks, H. B. Schlegel, G. E. Scuseria, 
 M. A. Robb, J. R. Cheeseman, J. A. Montgomery, Jr., T. Vreven, 
 K. N. Kudin, J. C. Burant, J. M. Millam, S. S. Iyengar, J. Tomasi, 
 V. Barone, B. Mennucci, M. Cossi, G. Scalmani, N. Rega, 
 G. A. Petersson, H. Nakatsuji, M. Hada, M. Ehara, K. Toyota, 
 R. Fukuda, J. Hasegawa, M. Ishida, T. Nakajima, Y. Honda, O. Kitao, 
 H. Nakai, M. Klene, X. Li, J. E. Knox, H. P. Hratchian, J. B. Cross, 
 C. Adamo, J. Jaramillo, R. Gomperts, R. E. Stratmann, O. Yazyev, 
 A. J. Austin, R. Cammi, C. Pomelli, J. W. Ochterski, P. Y. Ayala, 
 K. Morokuma, G. A. Voth, P. Salvador, J. J. Dannenberg, 
 V. G. Zakrzewski, S. Dapprich, A. D. Daniels, M. C. Strain, 
 O. Farkas, D. K. Malick, A. D. Rabuck, K. Raghavachari, 
 J. B. Foresman, J. V. Ortiz, Q. Cui, A. G. Baboul, S. Clifford, 
 J. Cioslowski, B. B. Stefanov, G. Liu, A. Liashenko, P. Piskorz, 
 I. Komaromi, R. L. Martin, D. J. Fox, T. Keith, M. A. Al-Laham, 
 C. Y. Peng, A. Nanayakkara, M. Challacombe, P. M. W. Gill, 
 B. Johnson, W. Chen, M. W. Wong, C. Gonzalez, and J. A. Pople, 
 Gaussian, Inc., Wallingford CT, 2004.
 
 ******************************************
 Gaussian 03:  IA32W-G03RevC.01  3-Apr-2004
                18-Jun-2017 
 ******************************************
 %Chk=H2S-UHF-sto-3g-SCAN-GEO-SYM
 Default route:  MaxDisk=2000MB
 -----------------
 # uhf/sto-3g scan
 -----------------
 1/38=1,60=1/1,8;
 2/17=6,18=5,29=3,40=1/2;
 3/6=3,11=2,16=1,25=1,30=1/1,2,3;
 4/7=2/1;
 5/5=2,38=5/2;
 6/7=2,8=2,9=2,10=2,18=1,28=1/1;
 1/60=1/8(1);
 99/9=1/99;
 2/29=3/2;
 3/6=3,11=2,16=1,25=1,30=1/1,2,3;
 4/5=5,7=2,16=3/1;
 5/5=2,38=5/2;
 1/60=1/8(-4);
 99/9=1/99;
 ---------------------------
 H2S-UHF-sto-3g-SCAN-GEO-SYM
 ---------------------------
 Symbolic Z-matrix:
 Charge =  0 Multiplicity = 1
 S
 H                    1    r
 H                    1    r        2    aHSH
       Variables:
  r                     0.8    Scan 30    0.04   
  aHSH                 92.11                     
 
 Scan the potential surface.
 Variable   Value     No. Steps Step-Size
 -------- ----------- --------- ---------
     1       0.800000      30      0.0400
 A total of     31 points will be computed.
 ------------------------------------------------------------------------
                         Z-MATRIX (ANGSTROMS AND DEGREES)
 CD Cent Atom  N1     Length/X     N2    Alpha/Y     N3     Beta/Z      J
 ------------------------------------------------------------------------
   1   1  S 
   2   2  H     1   0.800000(  1)
   3   3  H     1   0.800000(  2)   2   92.110(  3)
 ------------------------------------------------------------------------
                         Z-Matrix orientation:                         
 ---------------------------------------------------------------------
 Center     Atomic     Atomic              Coordinates (Angstroms)
 Number     Number      Type              X           Y           Z
 ---------------------------------------------------------------------
    1         16             0        0.000000    0.000000    0.000000
    2          1             0        0.000000    0.000000    0.800000
    3          1             0        0.799458    0.000000   -0.029454
 ---------------------------------------------------------------------
                    Distance matrix (angstroms):
                    1          2          3
     1  S    0.000000
     2  H    0.800000   0.000000
     3  H    0.800000   1.152010   0.000000
                           Interatomic angles:
       H2-S1-H3= 92.11  
 Stoichiometry    H2S
 Framework group  C2V[C2(S),SGV(H2)]
 Deg. of freedom     2
 Full point group                 C2V     NOp   4
 Largest Abelian subgroup         C2V     NOp   4
 Largest concise Abelian subgroup C2      NOp   2
                         Standard orientation:                         
 ---------------------------------------------------------------------
 Center     Atomic     Atomic              Coordinates (Angstroms)
 Number     Number      Type              X           Y           Z
 ---------------------------------------------------------------------
    1         16             0        0.000000    0.000000    0.061686
    2          1             0        0.000000    0.576005   -0.493488
    3          1             0        0.000000   -0.576005   -0.493488
 ---------------------------------------------------------------------
 Rotational constants (GHZ):    864.7589260    755.7001339    403.2798189
 Standard basis: STO-3G (5D, 7F)
 There are     6 symmetry adapted basis functions of A1  symmetry.
 There are     0 symmetry adapted basis functions of A2  symmetry.
 There are     2 symmetry adapted basis functions of B1  symmetry.
 There are     3 symmetry adapted basis functions of B2  symmetry.
 Integral buffers will be    262144 words long.
 Raffenetti 2 integral format.
 Two-electron integral symmetry is turned on.
    11 basis functions,    33 primitive gaussians,    11 cartesian basis functions
     9 alpha electrons        9 beta electrons
       nuclear repulsion energy        21.6264395327 Hartrees.



 Warning!  S  atom    1 may be hypervalent but has no d functions.



 NAtoms=    3 NActive=    3 NUniq=    2 SFac= 2.76D+00 NAtFMM=   60 Big=F
 One-electron integrals computed using PRISM.
 NBasis=    11 RedAO= T  NBF=     6     0     2     3
 NBsUse=    11 1.00D-06 NBFU=     6     0     2     3
 Harris functional with IExCor=  205 diagonalized for initial guess.
 ExpMin= 1.69D-01 ExpMax= 5.33D+02 ExpMxC= 5.33D+02 IAcc=1 IRadAn=         1 AccDes= 1.00D-06
 HarFok:  IExCor= 205 AccDes= 1.00D-06 IRadAn=         1 IDoV=1
 ScaDFX=  1.000000  1.000000  1.000000  1.000000
 Initial guess orbital symmetries:
 Alpha Orbitals:
       Occupied  (A1) (A1) (B2) (A1) (B1) (A1) (B2) (A1) (B1)
       Virtual   (B2) (A1)
 Beta  Orbitals:
       Occupied  (A1) (A1) (B2) (A1) (B1) (A1) (B2) (A1) (B1)
       Virtual   (B2) (A1)
 The electronic state of the initial guess is 1-A1.
 <S**2> of initial guess= 0.0000
 Requested convergence on RMS density matrix=1.00D-08 within 128 cycles.
 Requested convergence on MAX density matrix=1.00D-06.
 Requested convergence on             energy=1.00D-06.
 No special actions if energy rises.
 Keep R1 and R2 integrals in memory in canonical form, NReq=      423999.
 SCF Done:  E(UHF) =  -393.310452999     A.U. after    6 cycles
             Convg  =    0.4305D-08             -V/T =  2.0038
             S**2   =   0.0000
 Annihilation of the first spin contaminant:
 S**2 before annihilation     0.0000,   after     0.0000

 **********************************************************************

            Population analysis using the SCF density.

 **********************************************************************

 Orbital symmetries:
 Alpha Orbitals:
       Occupied  (A1) (A1) (B2) (A1) (B1) (A1) (B2) (A1) (B1)
       Virtual   (B2) (A1)
 Beta  Orbitals:
       Occupied  (A1) (A1) (B2) (A1) (B1) (A1) (B2) (A1) (B1)
       Virtual   (B2) (A1)
 The electronic state is 1-A1.
 Alpha  occ. eigenvalues --  -90.81973  -8.78061  -6.41933  -6.41074  -6.38829
 Alpha  occ. eigenvalues --   -1.13852  -0.71001  -0.45308  -0.35062
 Alpha virt. eigenvalues --    0.73061   1.19309
  Beta  occ. eigenvalues --  -90.81973  -8.78061  -6.41933  -6.41074  -6.38829
  Beta  occ. eigenvalues --   -1.13852  -0.71001  -0.45308  -0.35062
  Beta virt. eigenvalues --    0.73061   1.19309
          Condensed to atoms (all electrons):
              1          2          3
     1  S   15.169391   0.250918   0.250918
     2  H    0.250918   1.068694  -0.155227
     3  H    0.250918  -0.155227   1.068694
 Mulliken atomic charges:
              1
     1  S    0.328772
     2  H   -0.164386
     3  H   -0.164386
 Sum of Mulliken charges=   0.00000
 Atomic charges with hydrogens summed into heavy atoms:
              1
     1  S    0.000000
     2  H    0.000000
     3  H    0.000000
 Sum of Mulliken charges=   0.00000
          Atomic-Atomic Spin Densities.
              1          2          3
     1  S    0.000000   0.000000   0.000000
     2  H    0.000000   0.000000   0.000000
     3  H    0.000000   0.000000   0.000000
 Mulliken atomic spin densities:
              1
     1  S    0.000000
     2  H    0.000000
     3  H    0.000000
 Sum of Mulliken spin densities=   0.00000
 Electronic spatial extent (au):  <R**2>=    32.0320
 Charge=     0.0000 electrons
 Dipole moment (field-independent basis, Debye):
    X=     0.0000    Y=     0.0000    Z=    -0.8776  Tot=     0.8776
 Quadrupole moment (field-independent basis, Debye-Ang):
   XX=   -12.8007   YY=   -11.8796   ZZ=   -12.5847
   XY=     0.0000   XZ=     0.0000   YZ=     0.0000
 Traceless Quadrupole moment (field-independent basis, Debye-Ang):
   XX=    -0.3790   YY=     0.5421   ZZ=    -0.1630
   XY=     0.0000   XZ=     0.0000   YZ=     0.0000
 Octapole moment (field-independent basis, Debye-Ang**2):
  XXX=     0.0000  YYY=     0.0000  ZZZ=    -0.0421  XYY=     0.0000
  XXY=     0.0000  XXZ=    -0.2396  XZZ=     0.0000  YZZ=     0.0000
  YYZ=     0.7255  XYZ=     0.0000
 Hexadecapole moment (field-independent basis, Debye-Ang**3):
 XXXX=   -11.1491 YYYY=   -13.5843 ZZZZ=   -13.5760 XXXY=     0.0000
 XXXZ=     0.0000 YYYX=     0.0000 YYYZ=     0.0000 ZZZX=     0.0000
 ZZZY=     0.0000 XXYY=    -4.0496 XXZZ=    -4.1079 YYZZ=    -4.7093
 XXYZ=     0.0000 YYXZ=     0.0000 ZZXY=     0.0000
 N-N= 2.162643953270D+01 E-N=-9.787660415959D+02  KE= 3.918341051223D+02
 Symmetry A1   KE= 3.183397841785D+02
 Symmetry A2   KE= 0.000000000000D+00
 Symmetry B1   KE= 3.731620150423D+01
 Symmetry B2   KE= 3.617811943951D+01
                          Isotropic Fermi Contact Couplings
        Atom                 a.u.       MegaHertz       Gauss      10(-4) cm-1
     1  S(33)              0.00000       0.00000       0.00000       0.00000
     2  H(1)               0.00000       0.00000       0.00000       0.00000
     3  H(1)               0.00000       0.00000       0.00000       0.00000
 --------------------------------------------------------
       Center         ----  Spin Dipole Couplings  ----
                      3XX-RR        3YY-RR        3ZZ-RR
 --------------------------------------------------------
     1   Atom        0.000000      0.000000      0.000000
     2   Atom        0.000000      0.000000      0.000000
     3   Atom        0.000000      0.000000      0.000000
 --------------------------------------------------------
                        XY            XZ            YZ
 --------------------------------------------------------
     1   Atom        0.000000      0.000000      0.000000
     2   Atom        0.000000      0.000000      0.000000
     3   Atom        0.000000      0.000000      0.000000
 --------------------------------------------------------


 ---------------------------------------------------------------------------------
              Anisotropic Spin Dipole Couplings in Principal Axis System
 ---------------------------------------------------------------------------------

       Atom             a.u.   MegaHertz   Gauss  10(-4) cm-1        Axes

              Baa     0.0000     0.000     0.000     0.000  1.0000  0.0000  0.0000
     1 S(33)  Bbb     0.0000     0.000     0.000     0.000  0.0000  1.0000  0.0000
              Bcc     0.0000     0.000     0.000     0.000  0.0000  0.0000  1.0000
 
              Baa     0.0000     0.000     0.000     0.000  1.0000  0.0000  0.0000
     2 H(1)   Bbb     0.0000     0.000     0.000     0.000  0.0000  1.0000  0.0000
              Bcc     0.0000     0.000     0.000     0.000  0.0000  0.0000  1.0000
 
              Baa     0.0000     0.000     0.000     0.000  1.0000  0.0000  0.0000
     3 H(1)   Bbb     0.0000     0.000     0.000     0.000  0.0000  1.0000  0.0000
              Bcc     0.0000     0.000     0.000     0.000  0.0000  0.0000  1.0000
 

 ---------------------------------------------------------------------------------

 Variable Step   Value    
 -------- ---- -----------
     1       1    1.587370
 ------------------------------------------------------------------------
                         Z-MATRIX (ANGSTROMS AND DEGREES)
 CD Cent Atom  N1     Length/X     N2    Alpha/Y     N3     Beta/Z      J
 ------------------------------------------------------------------------
   1   1  S 
   2   2  H     1   0.840000(  1)
   3   3  H     1   0.840000(  2)   2   92.110(  3)
 ------------------------------------------------------------------------
                         Z-Matrix orientation:                         
 ---------------------------------------------------------------------
 Center     Atomic     Atomic              Coordinates (Angstroms)
 Number     Number      Type              X           Y           Z
 ---------------------------------------------------------------------
    1         16             0        0.000000    0.000000    0.000000
    2          1             0        0.000000    0.000000    0.840000
    3          1             0        0.839430    0.000000   -0.030927
 ---------------------------------------------------------------------
                    Distance matrix (angstroms):
                    1          2          3
     1  S    0.000000
     2  H    0.840000   0.000000
     3  H    0.840000   1.209611   0.000000
                           Interatomic angles:
       H2-S1-H3= 92.11  
 Stoichiometry    H2S
 Framework group  C2V[C2(S),SGV(H2)]
 Deg. of freedom     2
 Full point group                 C2V     NOp   4
 Largest Abelian subgroup         C2V     NOp   4
 Largest concise Abelian subgroup C2      NOp   2
                         Standard orientation:                         
 ---------------------------------------------------------------------
 Center     Atomic     Atomic              Coordinates (Angstroms)
 Number     Number      Type              X           Y           Z
 ---------------------------------------------------------------------
    1         16             0        0.000000    0.000000    0.064770
    2          1             0        0.000000    0.604805   -0.518162
    3          1             0        0.000000   -0.604805   -0.518162
 ---------------------------------------------------------------------
 Rotational constants (GHZ):    784.3618376    685.4422984    365.7866838
 Standard basis: STO-3G (5D, 7F)
 There are     6 symmetry adapted basis functions of A1  symmetry.
 There are     0 symmetry adapted basis functions of A2  symmetry.
 There are     2 symmetry adapted basis functions of B1  symmetry.
 There are     3 symmetry adapted basis functions of B2  symmetry.
 Integral buffers will be    262144 words long.
 Raffenetti 2 integral format.
 Two-electron integral symmetry is turned on.
    11 basis functions,    33 primitive gaussians,    11 cartesian basis functions
     9 alpha electrons        9 beta electrons
       nuclear repulsion energy        20.5966090788 Hartrees.



 Warning!  S  atom    1 may be hypervalent but has no d functions.



 NAtoms=    3 NActive=    3 NUniq=    2 SFac= 2.76D+00 NAtFMM=   60 Big=F
 One-electron integrals computed using PRISM.
 NBasis=    11 RedAO= T  NBF=     6     0     2     3
 NBsUse=    11 1.00D-06 NBFU=     6     0     2     3
 Initial guess read from the read-write file:
 Initial guess orbital symmetries:
 Alpha Orbitals:
       Occupied  (A1) (A1) (B2) (A1) (B1) (A1) (B2) (A1) (B1)
       Virtual   (B2) (A1)
 Beta  Orbitals:
       Occupied  (A1) (A1) (B2) (A1) (B1) (A1) (B2) (A1) (B1)
       Virtual   (B2) (A1)
 <S**2> of initial guess= 0.0000
 Harris functional with IExCor=  205 diagonalized for initial guess.
 ExpMin= 1.69D-01 ExpMax= 5.33D+02 ExpMxC= 5.33D+02 IAcc=1 IRadAn=         1 AccDes= 1.00D-06
 HarFok:  IExCor= 205 AccDes= 1.00D-06 IRadAn=         1 IDoV=1
 ScaDFX=  1.000000  1.000000  1.000000  1.000000
 Requested convergence on RMS density matrix=1.00D-08 within 128 cycles.
 Requested convergence on MAX density matrix=1.00D-06.
 Requested convergence on             energy=1.00D-06.
 No special actions if energy rises.
 Keep R1 and R2 integrals in memory in canonical form, NReq=      423999.
 SCF Done:  E(UHF) =  -393.522695897     A.U. after    7 cycles
             Convg  =    0.1930D-08             -V/T =  2.0052
             S**2   =   0.0000
 Annihilation of the first spin contaminant:
 S**2 before annihilation     0.0000,   after     0.0000
 Variable Step   Value    
 -------- ---- -----------
     1       2    1.662959
 ------------------------------------------------------------------------
                         Z-MATRIX (ANGSTROMS AND DEGREES)
 CD Cent Atom  N1     Length/X     N2    Alpha/Y     N3     Beta/Z      J
 ------------------------------------------------------------------------
   1   1  S 
   2   2  H     1   0.880000(  1)
   3   3  H     1   0.880000(  2)   2   92.110(  3)
 ------------------------------------------------------------------------
                         Z-Matrix orientation:                         
 ---------------------------------------------------------------------
 Center     Atomic     Atomic              Coordinates (Angstroms)
 Number     Number      Type              X           Y           Z
 ---------------------------------------------------------------------
    1         16             0        0.000000    0.000000    0.000000
    2          1             0        0.000000    0.000000    0.880000
    3          1             0        0.879403    0.000000   -0.032400
 ---------------------------------------------------------------------
                    Distance matrix (angstroms):
                    1          2          3
     1  S    0.000000
     2  H    0.880000   0.000000
     3  H    0.880000   1.267211   0.000000
                           Interatomic angles:
       H2-S1-H3= 92.11  
 Stoichiometry    H2S
 Framework group  C2V[C2(S),SGV(H2)]
 Deg. of freedom     2
 Full point group                 C2V     NOp   4
 Largest Abelian subgroup         C2V     NOp   4
 Largest concise Abelian subgroup C2      NOp   2
                         Standard orientation:                         
 ---------------------------------------------------------------------
 Center     Atomic     Atomic              Coordinates (Angstroms)
 Number     Number      Type              X           Y           Z
 ---------------------------------------------------------------------
    1         16             0        0.000000    0.000000    0.067855
    2          1             0        0.000000    0.633606   -0.542837
    3          1             0        0.000000   -0.633606   -0.542837
 ---------------------------------------------------------------------
 Rotational constants (GHZ):    714.6767983    624.5455652    333.2891065
 Standard basis: STO-3G (5D, 7F)
 There are     6 symmetry adapted basis functions of A1  symmetry.
 There are     0 symmetry adapted basis functions of A2  symmetry.
 There are     2 symmetry adapted basis functions of B1  symmetry.
 There are     3 symmetry adapted basis functions of B2  symmetry.
 Integral buffers will be    262144 words long.
 Raffenetti 2 integral format.
 Two-electron integral symmetry is turned on.
    11 basis functions,    33 primitive gaussians,    11 cartesian basis functions
     9 alpha electrons        9 beta electrons
       nuclear repulsion energy        19.6603995752 Hartrees.



 Warning!  S  atom    1 may be hypervalent but has no d functions.



 NAtoms=    3 NActive=    3 NUniq=    2 SFac= 2.76D+00 NAtFMM=   60 Big=F
 One-electron integrals computed using PRISM.
 NBasis=    11 RedAO= T  NBF=     6     0     2     3
 NBsUse=    11 1.00D-06 NBFU=     6     0     2     3
 Initial guess read from the read-write file:
 Initial guess orbital symmetries:
 Alpha Orbitals:
       Occupied  (A1) (A1) (B2) (A1) (B1) (A1) (B2) (A1) (B1)
       Virtual   (B2) (A1)
 Beta  Orbitals:
       Occupied  (A1) (A1) (B2) (A1) (B1) (A1) (B2) (A1) (B1)
       Virtual   (B2) (A1)
 <S**2> of initial guess= 0.0000
 Harris functional with IExCor=  205 diagonalized for initial guess.
 ExpMin= 1.69D-01 ExpMax= 5.33D+02 ExpMxC= 5.33D+02 IAcc=1 IRadAn=         1 AccDes= 1.00D-06
 HarFok:  IExCor= 205 AccDes= 1.00D-06 IRadAn=         1 IDoV=1
 ScaDFX=  1.000000  1.000000  1.000000  1.000000
 Requested convergence on RMS density matrix=1.00D-08 within 128 cycles.
 Requested convergence on MAX density matrix=1.00D-06.
 Requested convergence on             energy=1.00D-06.
 No special actions if energy rises.
 Keep R1 and R2 integrals in memory in canonical form, NReq=      423999.
 SCF Done:  E(UHF) =  -393.697118236     A.U. after    6 cycles
             Convg  =    0.4237D-08             -V/T =  2.0064
             S**2   =   0.0000
 Annihilation of the first spin contaminant:
 S**2 before annihilation     0.0000,   after     0.0000
 Variable Step   Value    
 -------- ---- -----------
     1       3    1.738548
 ------------------------------------------------------------------------
                         Z-MATRIX (ANGSTROMS AND DEGREES)
 CD Cent Atom  N1     Length/X     N2    Alpha/Y     N3     Beta/Z      J
 ------------------------------------------------------------------------
   1   1  S 
   2   2  H     1   0.920000(  1)
   3   3  H     1   0.920000(  2)   2   92.110(  3)
 ------------------------------------------------------------------------
                         Z-Matrix orientation:                         
 ---------------------------------------------------------------------
 Center     Atomic     Atomic              Coordinates (Angstroms)
 Number     Number      Type              X           Y           Z
 ---------------------------------------------------------------------
    1         16             0        0.000000    0.000000    0.000000
    2          1             0        0.000000    0.000000    0.920000
    3          1             0        0.919376    0.000000   -0.033873
 ---------------------------------------------------------------------
                    Distance matrix (angstroms):
                    1          2          3
     1  S    0.000000
     2  H    0.920000   0.000000
     3  H    0.920000   1.324812   0.000000
                           Interatomic angles:
       H2-S1-H3= 92.11  
 Stoichiometry    H2S
 Framework group  C2V[C2(S),SGV(H2)]
 Deg. of freedom     2
 Full point group                 C2V     NOp   4
 Largest Abelian subgroup         C2V     NOp   4
 Largest concise Abelian subgroup C2      NOp   2
                         Standard orientation:                         
 ---------------------------------------------------------------------
 Center     Atomic     Atomic              Coordinates (Angstroms)
 Number     Number      Type              X           Y           Z
 ---------------------------------------------------------------------
    1         16             0        0.000000    0.000000    0.070939
    2          1             0        0.000000    0.662406   -0.567511
    3          1             0        0.000000   -0.662406   -0.567511
 ---------------------------------------------------------------------
 Rotational constants (GHZ):    653.8819856    571.4178707    304.9374812
 Standard basis: STO-3G (5D, 7F)
 There are     6 symmetry adapted basis functions of A1  symmetry.
 There are     0 symmetry adapted basis functions of A2  symmetry.
 There are     2 symmetry adapted basis functions of B1  symmetry.
 There are     3 symmetry adapted basis functions of B2  symmetry.
 Integral buffers will be    262144 words long.
 Raffenetti 2 integral format.
 Two-electron integral symmetry is turned on.
    11 basis functions,    33 primitive gaussians,    11 cartesian basis functions
     9 alpha electrons        9 beta electrons
       nuclear repulsion energy        18.8055995936 Hartrees.



 Warning!  S  atom    1 may be hypervalent but has no d functions.



 NAtoms=    3 NActive=    3 NUniq=    2 SFac= 2.76D+00 NAtFMM=   60 Big=F
 One-electron integrals computed using PRISM.
 NBasis=    11 RedAO= T  NBF=     6     0     2     3
 NBsUse=    11 1.00D-06 NBFU=     6     0     2     3
 Initial guess read from the read-write file:
 Initial guess orbital symmetries:
 Alpha Orbitals:
       Occupied  (A1) (A1) (B2) (A1) (B1) (A1) (B2) (A1) (B1)
       Virtual   (B2) (A1)
 Beta  Orbitals:
       Occupied  (A1) (A1) (B2) (A1) (B1) (A1) (B2) (A1) (B1)
       Virtual   (B2) (A1)
 <S**2> of initial guess= 0.0000
 Harris functional with IExCor=  205 diagonalized for initial guess.
 ExpMin= 1.69D-01 ExpMax= 5.33D+02 ExpMxC= 5.33D+02 IAcc=1 IRadAn=         1 AccDes= 1.00D-06
 HarFok:  IExCor= 205 AccDes= 1.00D-06 IRadAn=         1 IDoV=1
 ScaDFX=  1.000000  1.000000  1.000000  1.000000
 Requested convergence on RMS density matrix=1.00D-08 within 128 cycles.
 Requested convergence on MAX density matrix=1.00D-06.
 Requested convergence on             energy=1.00D-06.
 No special actions if energy rises.
 Keep R1 and R2 integrals in memory in canonical form, NReq=      423999.
 SCF Done:  E(UHF) =  -393.839678709     A.U. after    7 cycles
             Convg  =    0.1137D-09             -V/T =  2.0074
             S**2   =   0.0000
 Annihilation of the first spin contaminant:
 S**2 before annihilation     0.0000,   after     0.0000
 Variable Step   Value    
 -------- ---- -----------
     1       4    1.814137
 ------------------------------------------------------------------------
                         Z-MATRIX (ANGSTROMS AND DEGREES)
 CD Cent Atom  N1     Length/X     N2    Alpha/Y     N3     Beta/Z      J
 ------------------------------------------------------------------------
   1   1  S 
   2   2  H     1   0.960000(  1)
   3   3  H     1   0.960000(  2)   2   92.110(  3)
 ------------------------------------------------------------------------
                         Z-Matrix orientation:                         
 ---------------------------------------------------------------------
 Center     Atomic     Atomic              Coordinates (Angstroms)
 Number     Number      Type              X           Y           Z
 ---------------------------------------------------------------------
    1         16             0        0.000000    0.000000    0.000000
    2          1             0        0.000000    0.000000    0.960000
    3          1             0        0.959349    0.000000   -0.035345
 ---------------------------------------------------------------------
                    Distance matrix (angstroms):
                    1          2          3
     1  S    0.000000
     2  H    0.960000   0.000000
     3  H    0.960000   1.382412   0.000000
                           Interatomic angles:
       H2-S1-H3= 92.11  
 Stoichiometry    H2S
 Framework group  C2V[C2(S),SGV(H2)]
 Deg. of freedom     2
 Full point group                 C2V     NOp   4
 Largest Abelian subgroup         C2V     NOp   4
 Largest concise Abelian subgroup C2      NOp   2
                         Standard orientation:                         
 ---------------------------------------------------------------------
 Center     Atomic     Atomic              Coordinates (Angstroms)
 Number     Number      Type              X           Y           Z
 ---------------------------------------------------------------------
    1         16             0        0.000000    0.000000    0.074023
    2          1             0        0.000000    0.691206   -0.592186
    3          1             0        0.000000   -0.691206   -0.592186
 ---------------------------------------------------------------------
 Rotational constants (GHZ):    600.5270319    524.7917597    280.0554298
 Standard basis: STO-3G (5D, 7F)
 There are     6 symmetry adapted basis functions of A1  symmetry.
 There are     0 symmetry adapted basis functions of A2  symmetry.
 There are     2 symmetry adapted basis functions of B1  symmetry.
 There are     3 symmetry adapted basis functions of B2  symmetry.
 Integral buffers will be    262144 words long.
 Raffenetti 2 integral format.
 Two-electron integral symmetry is turned on.
    11 basis functions,    33 primitive gaussians,    11 cartesian basis functions
     9 alpha electrons        9 beta electrons
       nuclear repulsion energy        18.0220329439 Hartrees.



 Warning!  S  atom    1 may be hypervalent but has no d functions.



 NAtoms=    3 NActive=    3 NUniq=    2 SFac= 2.76D+00 NAtFMM=   60 Big=F
 One-electron integrals computed using PRISM.
 NBasis=    11 RedAO= T  NBF=     6     0     2     3
 NBsUse=    11 1.00D-06 NBFU=     6     0     2     3
 Initial guess read from the read-write file:
 Initial guess orbital symmetries:
 Alpha Orbitals:
       Occupied  (A1) (A1) (B2) (A1) (B1) (A1) (B2) (A1) (B1)
       Virtual   (B2) (A1)
 Beta  Orbitals:
       Occupied  (A1) (A1) (B2) (A1) (B1) (A1) (B2) (A1) (B1)
       Virtual   (B2) (A1)
 <S**2> of initial guess= 0.0000
 Harris functional with IExCor=  205 diagonalized for initial guess.
 ExpMin= 1.69D-01 ExpMax= 5.33D+02 ExpMxC= 5.33D+02 IAcc=1 IRadAn=         1 AccDes= 1.00D-06
 HarFok:  IExCor= 205 AccDes= 1.00D-06 IRadAn=         1 IDoV=1
 ScaDFX=  1.000000  1.000000  1.000000  1.000000
 Requested convergence on RMS density matrix=1.00D-08 within 128 cycles.
 Requested convergence on MAX density matrix=1.00D-06.
 Requested convergence on             energy=1.00D-06.
 No special actions if energy rises.
 Keep R1 and R2 integrals in memory in canonical form, NReq=      423999.
 SCF Done:  E(UHF) =  -393.955415440     A.U. after    7 cycles
             Convg  =    0.1560D-09             -V/T =  2.0083
             S**2   =   0.0000
 Annihilation of the first spin contaminant:
 S**2 before annihilation     0.0000,   after     0.0000
 Variable Step   Value    
 -------- ---- -----------
     1       5    1.889726
 ------------------------------------------------------------------------
                         Z-MATRIX (ANGSTROMS AND DEGREES)
 CD Cent Atom  N1     Length/X     N2    Alpha/Y     N3     Beta/Z      J
 ------------------------------------------------------------------------
   1   1  S 
   2   2  H     1   1.000000(  1)
   3   3  H     1   1.000000(  2)   2   92.110(  3)
 ------------------------------------------------------------------------
                         Z-Matrix orientation:                         
 ---------------------------------------------------------------------
 Center     Atomic     Atomic              Coordinates (Angstroms)
 Number     Number      Type              X           Y           Z
 ---------------------------------------------------------------------
    1         16             0        0.000000    0.000000    0.000000
    2          1             0        0.000000    0.000000    1.000000
    3          1             0        0.999322    0.000000   -0.036818
 ---------------------------------------------------------------------
                    Distance matrix (angstroms):
                    1          2          3
     1  S    0.000000
     2  H    1.000000   0.000000
     3  H    1.000000   1.440013   0.000000
                           Interatomic angles:
       H2-S1-H3= 92.11  
 Stoichiometry    H2S
 Framework group  C2V[C2(S),SGV(H2)]
 Deg. of freedom     2
 Full point group                 C2V     NOp   4
 Largest Abelian subgroup         C2V     NOp   4
 Largest concise Abelian subgroup C2      NOp   2
                         Standard orientation:                         
 ---------------------------------------------------------------------
 Center     Atomic     Atomic              Coordinates (Angstroms)
 Number     Number      Type              X           Y           Z
 ---------------------------------------------------------------------
    1         16             0        0.000000    0.000000    0.077108
    2          1             0        0.000000    0.720006   -0.616860
    3          1             0        0.000000   -0.720006   -0.616860
 ---------------------------------------------------------------------
 Rotational constants (GHZ):    553.4457126    483.6480857    258.0990841
 Standard basis: STO-3G (5D, 7F)
 There are     6 symmetry adapted basis functions of A1  symmetry.
 There are     0 symmetry adapted basis functions of A2  symmetry.
 There are     2 symmetry adapted basis functions of B1  symmetry.
 There are     3 symmetry adapted basis functions of B2  symmetry.
 Integral buffers will be    262144 words long.
 Raffenetti 2 integral format.
 Two-electron integral symmetry is turned on.
    11 basis functions,    33 primitive gaussians,    11 cartesian basis functions
     9 alpha electrons        9 beta electrons
       nuclear repulsion energy        17.3011516262 Hartrees.



 Warning!  S  atom    1 may be hypervalent but has no d functions.



 NAtoms=    3 NActive=    3 NUniq=    2 SFac= 2.76D+00 NAtFMM=   60 Big=F
 One-electron integrals computed using PRISM.
 NBasis=    11 RedAO= T  NBF=     6     0     2     3
 NBsUse=    11 1.00D-06 NBFU=     6     0     2     3
 Initial guess read from the read-write file:
 Initial guess orbital symmetries:
 Alpha Orbitals:
       Occupied  (A1) (A1) (B2) (A1) (B1) (A1) (B2) (A1) (B1)
       Virtual   (B2) (A1)
 Beta  Orbitals:
       Occupied  (A1) (A1) (B2) (A1) (B1) (A1) (B2) (A1) (B1)
       Virtual   (B2) (A1)
 <S**2> of initial guess= 0.0000
 Harris functional with IExCor=  205 diagonalized for initial guess.
 ExpMin= 1.69D-01 ExpMax= 5.33D+02 ExpMxC= 5.33D+02 IAcc=1 IRadAn=         1 AccDes= 1.00D-06
 HarFok:  IExCor= 205 AccDes= 1.00D-06 IRadAn=         1 IDoV=1
 ScaDFX=  1.000000  1.000000  1.000000  1.000000
 Requested convergence on RMS density matrix=1.00D-08 within 128 cycles.
 Requested convergence on MAX density matrix=1.00D-06.
 Requested convergence on             energy=1.00D-06.
 No special actions if energy rises.
 Keep R1 and R2 integrals in memory in canonical form, NReq=      423999.
 SCF Done:  E(UHF) =  -394.048578134     A.U. after    7 cycles
             Convg  =    0.1355D-09             -V/T =  2.0090
             S**2   =   0.0000
 Annihilation of the first spin contaminant:
 S**2 before annihilation     0.0000,   after     0.0000
 Variable Step   Value    
 -------- ---- -----------
     1       6    1.965315
 ------------------------------------------------------------------------
                         Z-MATRIX (ANGSTROMS AND DEGREES)
 CD Cent Atom  N1     Length/X     N2    Alpha/Y     N3     Beta/Z      J
 ------------------------------------------------------------------------
   1   1  S 
   2   2  H     1   1.040000(  1)
   3   3  H     1   1.040000(  2)   2   92.110(  3)
 ------------------------------------------------------------------------
                         Z-Matrix orientation:                         
 ---------------------------------------------------------------------
 Center     Atomic     Atomic              Coordinates (Angstroms)
 Number     Number      Type              X           Y           Z
 ---------------------------------------------------------------------
    1         16             0        0.000000    0.000000    0.000000
    2          1             0        0.000000    0.000000    1.040000
    3          1             0        1.039295    0.000000   -0.038291
 ---------------------------------------------------------------------
                    Distance matrix (angstroms):
                    1          2          3
     1  S    0.000000
     2  H    1.040000   0.000000
     3  H    1.040000   1.497613   0.000000
                           Interatomic angles:
       H2-S1-H3= 92.11  
 Stoichiometry    H2S
 Framework group  C2V[C2(S),SGV(H2)]
 Deg. of freedom     2
 Full point group                 C2V     NOp   4
 Largest Abelian subgroup         C2V     NOp   4
 Largest concise Abelian subgroup C2      NOp   2
                         Standard orientation:                         
 ---------------------------------------------------------------------
 Center     Atomic     Atomic              Coordinates (Angstroms)
 Number     Number      Type              X           Y           Z
 ---------------------------------------------------------------------
    1         16             0        0.000000    0.000000    0.080192
    2          1             0        0.000000    0.748807   -0.641534
    3          1             0        0.000000   -0.748807   -0.641534
 ---------------------------------------------------------------------
 Rotational constants (GHZ):    511.6916722    447.1598426    238.6271118
 Standard basis: STO-3G (5D, 7F)
 There are     6 symmetry adapted basis functions of A1  symmetry.
 There are     0 symmetry adapted basis functions of A2  symmetry.
 There are     2 symmetry adapted basis functions of B1  symmetry.
 There are     3 symmetry adapted basis functions of B2  symmetry.
 Integral buffers will be    262144 words long.
 Raffenetti 2 integral format.
 Two-electron integral symmetry is turned on.
    11 basis functions,    33 primitive gaussians,    11 cartesian basis functions
     9 alpha electrons        9 beta electrons
       nuclear repulsion energy        16.6357227175 Hartrees.



 Warning!  S  atom    1 may be hypervalent but has no d functions.



 NAtoms=    3 NActive=    3 NUniq=    2 SFac= 2.76D+00 NAtFMM=   60 Big=F
 One-electron integrals computed using PRISM.
 NBasis=    11 RedAO= T  NBF=     6     0     2     3
 NBsUse=    11 1.00D-06 NBFU=     6     0     2     3
 Initial guess read from the read-write file:
 Initial guess orbital symmetries:
 Alpha Orbitals:
       Occupied  (A1) (A1) (B2) (A1) (B1) (A1) (B2) (A1) (B1)
       Virtual   (B2) (A1)
 Beta  Orbitals:
       Occupied  (A1) (A1) (B2) (A1) (B1) (A1) (B2) (A1) (B1)
       Virtual   (B2) (A1)
 <S**2> of initial guess= 0.0000
 Harris functional with IExCor=  205 diagonalized for initial guess.
 ExpMin= 1.69D-01 ExpMax= 5.33D+02 ExpMxC= 5.33D+02 IAcc=1 IRadAn=         1 AccDes= 1.00D-06
 HarFok:  IExCor= 205 AccDes= 1.00D-06 IRadAn=         1 IDoV=1
 ScaDFX=  1.000000  1.000000  1.000000  1.000000
 Requested convergence on RMS density matrix=1.00D-08 within 128 cycles.
 Requested convergence on MAX density matrix=1.00D-06.
 Requested convergence on             energy=1.00D-06.
 No special actions if energy rises.
 Keep R1 and R2 integrals in memory in canonical form, NReq=      423999.
 SCF Done:  E(UHF) =  -394.122744922     A.U. after    7 cycles
             Convg  =    0.9473D-10             -V/T =  2.0097
             S**2   =   0.0000
 Annihilation of the first spin contaminant:
 S**2 before annihilation     0.0000,   after     0.0000
 Variable Step   Value    
 -------- ---- -----------
     1       7    2.040904
 ------------------------------------------------------------------------
                         Z-MATRIX (ANGSTROMS AND DEGREES)
 CD Cent Atom  N1     Length/X     N2    Alpha/Y     N3     Beta/Z      J
 ------------------------------------------------------------------------
   1   1  S 
   2   2  H     1   1.080000(  1)
   3   3  H     1   1.080000(  2)   2   92.110(  3)
 ------------------------------------------------------------------------
                         Z-Matrix orientation:                         
 ---------------------------------------------------------------------
 Center     Atomic     Atomic              Coordinates (Angstroms)
 Number     Number      Type              X           Y           Z
 ---------------------------------------------------------------------
    1         16             0        0.000000    0.000000    0.000000
    2          1             0        0.000000    0.000000    1.080000
    3          1             0        1.079268    0.000000   -0.039764
 ---------------------------------------------------------------------
                    Distance matrix (angstroms):
                    1          2          3
     1  S    0.000000
     2  H    1.080000   0.000000
     3  H    1.080000   1.555214   0.000000
                           Interatomic angles:
       H2-S1-H3= 92.11  
 Stoichiometry    H2S
 Framework group  C2V[C2(S),SGV(H2)]
 Deg. of freedom     2
 Full point group                 C2V     NOp   4
 Largest Abelian subgroup         C2V     NOp   4
 Largest concise Abelian subgroup C2      NOp   2
                         Standard orientation:                         
 ---------------------------------------------------------------------
 Center     Atomic     Atomic              Coordinates (Angstroms)
 Number     Number      Type              X           Y           Z
 ---------------------------------------------------------------------
    1         16             0        0.000000    0.000000    0.083276
    2          1             0        0.000000    0.777607   -0.666209
    3          1             0        0.000000   -0.777607   -0.666209
 ---------------------------------------------------------------------
 Rotational constants (GHZ):    474.4904944    414.6502793    221.2783643
 Standard basis: STO-3G (5D, 7F)
 There are     6 symmetry adapted basis functions of A1  symmetry.
 There are     0 symmetry adapted basis functions of A2  symmetry.
 There are     2 symmetry adapted basis functions of B1  symmetry.
 There are     3 symmetry adapted basis functions of B2  symmetry.
 Integral buffers will be    262144 words long.
 Raffenetti 2 integral format.
 Two-electron integral symmetry is turned on.
    11 basis functions,    33 primitive gaussians,    11 cartesian basis functions
     9 alpha electrons        9 beta electrons
       nuclear repulsion energy        16.0195848390 Hartrees.



 Warning!  S  atom    1 may be hypervalent but has no d functions.



 NAtoms=    3 NActive=    3 NUniq=    2 SFac= 2.76D+00 NAtFMM=   60 Big=F
 One-electron integrals computed using PRISM.
 NBasis=    11 RedAO= T  NBF=     6     0     2     3
 NBsUse=    11 1.00D-06 NBFU=     6     0     2     3
 Initial guess read from the read-write file:
 Initial guess orbital symmetries:
 Alpha Orbitals:
       Occupied  (A1) (A1) (B2) (A1) (B1) (A1) (B2) (A1) (B1)
       Virtual   (B2) (A1)
 Beta  Orbitals:
       Occupied  (A1) (A1) (B2) (A1) (B1) (A1) (B2) (A1) (B1)
       Virtual   (B2) (A1)
 <S**2> of initial guess= 0.0000
 Harris functional with IExCor=  205 diagonalized for initial guess.
 ExpMin= 1.69D-01 ExpMax= 5.33D+02 ExpMxC= 5.33D+02 IAcc=1 IRadAn=         1 AccDes= 1.00D-06
 HarFok:  IExCor= 205 AccDes= 1.00D-06 IRadAn=         1 IDoV=1
 ScaDFX=  1.000000  1.000000  1.000000  1.000000
 Requested convergence on RMS density matrix=1.00D-08 within 128 cycles.
 Requested convergence on MAX density matrix=1.00D-06.
 Requested convergence on             energy=1.00D-06.
 No special actions if energy rises.
 Keep R1 and R2 integrals in memory in canonical form, NReq=      423999.
 SCF Done:  E(UHF) =  -394.180926280     A.U. after    7 cycles
             Convg  =    0.4708D-10             -V/T =  2.0102
             S**2   =   0.0000
 Annihilation of the first spin contaminant:
 S**2 before annihilation     0.0000,   after     0.0000
 Variable Step   Value    
 -------- ---- -----------
     1       8    2.116493
 ------------------------------------------------------------------------
                         Z-MATRIX (ANGSTROMS AND DEGREES)
 CD Cent Atom  N1     Length/X     N2    Alpha/Y     N3     Beta/Z      J
 ------------------------------------------------------------------------
   1   1  S 
   2   2  H     1   1.120000(  1)
   3   3  H     1   1.120000(  2)   2   92.110(  3)
 ------------------------------------------------------------------------
                         Z-Matrix orientation:                         
 ---------------------------------------------------------------------
 Center     Atomic     Atomic              Coordinates (Angstroms)
 Number     Number      Type              X           Y           Z
 ---------------------------------------------------------------------
    1         16             0        0.000000    0.000000    0.000000
    2          1             0        0.000000    0.000000    1.120000
    3          1             0        1.119241    0.000000   -0.041236
 ---------------------------------------------------------------------
                    Distance matrix (angstroms):
                    1          2          3
     1  S    0.000000
     2  H    1.120000   0.000000
     3  H    1.120000   1.612814   0.000000
                           Interatomic angles:
       H2-S1-H3= 92.11  
 Stoichiometry    H2S
 Framework group  C2V[C2(S),SGV(H2)]
 Deg. of freedom     2
 Full point group                 C2V     NOp   4
 Largest Abelian subgroup         C2V     NOp   4
 Largest concise Abelian subgroup C2      NOp   2
                         Standard orientation:                         
 ---------------------------------------------------------------------
 Center     Atomic     Atomic              Coordinates (Angstroms)
 Number     Number      Type              X           Y           Z
 ---------------------------------------------------------------------
    1         16             0        0.000000    0.000000    0.086360
    2          1             0        0.000000    0.806407   -0.690883
    3          1             0        0.000000   -0.806407   -0.690883
 ---------------------------------------------------------------------
 Rotational constants (GHZ):    441.2035337    385.5612928    205.7550096
 Standard basis: STO-3G (5D, 7F)
 There are     6 symmetry adapted basis functions of A1  symmetry.
 There are     0 symmetry adapted basis functions of A2  symmetry.
 There are     2 symmetry adapted basis functions of B1  symmetry.
 There are     3 symmetry adapted basis functions of B2  symmetry.
 Integral buffers will be    262144 words long.
 Raffenetti 2 integral format.
 Two-electron integral symmetry is turned on.
    11 basis functions,    33 primitive gaussians,    11 cartesian basis functions
     9 alpha electrons        9 beta electrons
       nuclear repulsion energy        15.4474568091 Hartrees.



 Warning!  S  atom    1 may be hypervalent but has no d functions.



 NAtoms=    3 NActive=    3 NUniq=    2 SFac= 2.76D+00 NAtFMM=   60 Big=F
 One-electron integrals computed using PRISM.
 NBasis=    11 RedAO= T  NBF=     6     0     2     3
 NBsUse=    11 1.00D-06 NBFU=     6     0     2     3
 Initial guess read from the read-write file:
 Initial guess orbital symmetries:
 Alpha Orbitals:
       Occupied  (A1) (A1) (B2) (A1) (B1) (A1) (B2) (A1) (B1)
       Virtual   (B2) (A1)
 Beta  Orbitals:
       Occupied  (A1) (A1) (B2) (A1) (B1) (A1) (B2) (A1) (B1)
       Virtual   (B2) (A1)
 <S**2> of initial guess= 0.0000
 Harris functional with IExCor=  205 diagonalized for initial guess.
 ExpMin= 1.69D-01 ExpMax= 5.33D+02 ExpMxC= 5.33D+02 IAcc=1 IRadAn=         1 AccDes= 1.00D-06
 HarFok:  IExCor= 205 AccDes= 1.00D-06 IRadAn=         1 IDoV=1
 ScaDFX=  1.000000  1.000000  1.000000  1.000000
 Requested convergence on RMS density matrix=1.00D-08 within 128 cycles.
 Requested convergence on MAX density matrix=1.00D-06.
 Requested convergence on             energy=1.00D-06.
 No special actions if energy rises.
 Keep R1 and R2 integrals in memory in canonical form, NReq=      423999.
 SCF Done:  E(UHF) =  -394.225655506     A.U. after    7 cycles
             Convg  =    0.2256D-11             -V/T =  2.0106
             S**2   =   0.0000
 Annihilation of the first spin contaminant:
 S**2 before annihilation     0.0000,   after     0.0000
 Variable Step   Value    
 -------- ---- -----------
     1       9    2.192082
 ------------------------------------------------------------------------
                         Z-MATRIX (ANGSTROMS AND DEGREES)
 CD Cent Atom  N1     Length/X     N2    Alpha/Y     N3     Beta/Z      J
 ------------------------------------------------------------------------
   1   1  S 
   2   2  H     1   1.160000(  1)
   3   3  H     1   1.160000(  2)   2   92.110(  3)
 ------------------------------------------------------------------------
                         Z-Matrix orientation:                         
 ---------------------------------------------------------------------
 Center     Atomic     Atomic              Coordinates (Angstroms)
 Number     Number      Type              X           Y           Z
 ---------------------------------------------------------------------
    1         16             0        0.000000    0.000000    0.000000
    2          1             0        0.000000    0.000000    1.160000
    3          1             0        1.159214    0.000000   -0.042709
 ---------------------------------------------------------------------
                    Distance matrix (angstroms):
                    1          2          3
     1  S    0.000000
     2  H    1.160000   0.000000
     3  H    1.160000   1.670415   0.000000
                           Interatomic angles:
       H2-S1-H3= 92.11  
 Stoichiometry    H2S
 Framework group  C2V[C2(S),SGV(H2)]
 Deg. of freedom     2
 Full point group                 C2V     NOp   4
 Largest Abelian subgroup         C2V     NOp   4
 Largest concise Abelian subgroup C2      NOp   2
                         Standard orientation:                         
 ---------------------------------------------------------------------
 Center     Atomic     Atomic              Coordinates (Angstroms)
 Number     Number      Type              X           Y           Z
 ---------------------------------------------------------------------
    1         16             0        0.000000    0.000000    0.089445
    2          1             0        0.000000    0.835207   -0.715558
    3          1             0        0.000000   -0.835207   -0.715558
 ---------------------------------------------------------------------
 Rotational constants (GHZ):    411.3003215    359.4293146    191.8096642
 Standard basis: STO-3G (5D, 7F)
 There are     6 symmetry adapted basis functions of A1  symmetry.
 There are     0 symmetry adapted basis functions of A2  symmetry.
 There are     2 symmetry adapted basis functions of B1  symmetry.
 There are     3 symmetry adapted basis functions of B2  symmetry.
 Integral buffers will be    262144 words long.
 Raffenetti 2 integral format.
 Two-electron integral symmetry is turned on.
    11 basis functions,    33 primitive gaussians,    11 cartesian basis functions
     9 alpha electrons        9 beta electrons
       nuclear repulsion energy        14.9147858846 Hartrees.



 Warning!  S  atom    1 may be hypervalent but has no d functions.



 NAtoms=    3 NActive=    3 NUniq=    2 SFac= 2.76D+00 NAtFMM=   60 Big=F
 One-electron integrals computed using PRISM.
 NBasis=    11 RedAO= T  NBF=     6     0     2     3
 NBsUse=    11 1.00D-06 NBFU=     6     0     2     3
 Initial guess read from the read-write file:
 Initial guess orbital symmetries:
 Alpha Orbitals:
       Occupied  (A1) (A1) (B2) (A1) (B1) (A1) (B2) (A1) (B1)
       Virtual   (B2) (A1)
 Beta  Orbitals:
       Occupied  (A1) (A1) (B2) (A1) (B1) (A1) (B2) (A1) (B1)
       Virtual   (B2) (A1)
 <S**2> of initial guess= 0.0000
 Harris functional with IExCor=  205 diagonalized for initial guess.
 ExpMin= 1.69D-01 ExpMax= 5.33D+02 ExpMxC= 5.33D+02 IAcc=1 IRadAn=         1 AccDes= 1.00D-06
 HarFok:  IExCor= 205 AccDes= 1.00D-06 IRadAn=         1 IDoV=1
 ScaDFX=  1.000000  1.000000  1.000000  1.000000
 Requested convergence on RMS density matrix=1.00D-08 within 128 cycles.
 Requested convergence on MAX density matrix=1.00D-06.
 Requested convergence on             energy=1.00D-06.
 No special actions if energy rises.
 Keep R1 and R2 integrals in memory in canonical form, NReq=      423999.
 SCF Done:  E(UHF) =  -394.259065782     A.U. after    6 cycles
             Convg  =    0.6589D-08             -V/T =  2.0110
             S**2   =   0.0000
 Annihilation of the first spin contaminant:
 S**2 before annihilation     0.0000,   after     0.0000
 Variable Step   Value    
 -------- ---- -----------
     1      10    2.267671
 ------------------------------------------------------------------------
                         Z-MATRIX (ANGSTROMS AND DEGREES)
 CD Cent Atom  N1     Length/X     N2    Alpha/Y     N3     Beta/Z      J
 ------------------------------------------------------------------------
   1   1  S 
   2   2  H     1   1.200000(  1)
   3   3  H     1   1.200000(  2)   2   92.110(  3)
 ------------------------------------------------------------------------
                         Z-Matrix orientation:                         
 ---------------------------------------------------------------------
 Center     Atomic     Atomic              Coordinates (Angstroms)
 Number     Number      Type              X           Y           Z
 ---------------------------------------------------------------------
    1         16             0        0.000000    0.000000    0.000000
    2          1             0        0.000000    0.000000    1.200000
    3          1             0        1.199186    0.000000   -0.044182
 ---------------------------------------------------------------------
                    Distance matrix (angstroms):
                    1          2          3
     1  S    0.000000
     2  H    1.200000   0.000000
     3  H    1.200000   1.728015   0.000000
                           Interatomic angles:
       H2-S1-H3= 92.11  
 Stoichiometry    H2S
 Framework group  C2V[C2(S),SGV(H2)]
 Deg. of freedom     2
 Full point group                 C2V     NOp   4
 Largest Abelian subgroup         C2V     NOp   4
 Largest concise Abelian subgroup C2      NOp   2
                         Standard orientation:                         
 ---------------------------------------------------------------------
 Center     Atomic     Atomic              Coordinates (Angstroms)
 Number     Number      Type              X           Y           Z
 ---------------------------------------------------------------------
    1         16             0        0.000000    0.000000    0.092529
    2          1             0        0.000000    0.864008   -0.740232
    3          1             0        0.000000   -0.864008   -0.740232
 ---------------------------------------------------------------------
 Rotational constants (GHZ):    384.3373004    335.8667262    179.2354751
 Standard basis: STO-3G (5D, 7F)
 There are     6 symmetry adapted basis functions of A1  symmetry.
 There are     0 symmetry adapted basis functions of A2  symmetry.
 There are     2 symmetry adapted basis functions of B1  symmetry.
 There are     3 symmetry adapted basis functions of B2  symmetry.
 Integral buffers will be    262144 words long.
 Raffenetti 2 integral format.
 Two-electron integral symmetry is turned on.
    11 basis functions,    33 primitive gaussians,    11 cartesian basis functions
     9 alpha electrons        9 beta electrons
       nuclear repulsion energy        14.4176263551 Hartrees.



 Warning!  S  atom    1 may be hypervalent but has no d functions.



 NAtoms=    3 NActive=    3 NUniq=    2 SFac= 2.76D+00 NAtFMM=   60 Big=F
 One-electron integrals computed using PRISM.
 NBasis=    11 RedAO= T  NBF=     6     0     2     3
 NBsUse=    11 1.00D-06 NBFU=     6     0     2     3
 Initial guess read from the read-write file:
 Initial guess orbital symmetries:
 Alpha Orbitals:
       Occupied  (A1) (A1) (B2) (A1) (B1) (A1) (B2) (A1) (B1)
       Virtual   (B2) (A1)
 Beta  Orbitals:
       Occupied  (A1) (A1) (B2) (A1) (B1) (A1) (B2) (A1) (B1)
       Virtual   (B2) (A1)
 <S**2> of initial guess= 0.0000
 Harris functional with IExCor=  205 diagonalized for initial guess.
 ExpMin= 1.69D-01 ExpMax= 5.33D+02 ExpMxC= 5.33D+02 IAcc=1 IRadAn=         1 AccDes= 1.00D-06
 HarFok:  IExCor= 205 AccDes= 1.00D-06 IRadAn=         1 IDoV=1
 ScaDFX=  1.000000  1.000000  1.000000  1.000000
 Requested convergence on RMS density matrix=1.00D-08 within 128 cycles.
 Requested convergence on MAX density matrix=1.00D-06.
 Requested convergence on             energy=1.00D-06.
 No special actions if energy rises.
 Keep R1 and R2 integrals in memory in canonical form, NReq=      423999.
 SCF Done:  E(UHF) =  -394.282954861     A.U. after    6 cycles
             Convg  =    0.5233D-08             -V/T =  2.0113
             S**2   =   0.0000
 Annihilation of the first spin contaminant:
 S**2 before annihilation     0.0000,   after     0.0000
 Variable Step   Value    
 -------- ---- -----------
     1      11    2.343260
 ------------------------------------------------------------------------
                         Z-MATRIX (ANGSTROMS AND DEGREES)
 CD Cent Atom  N1     Length/X     N2    Alpha/Y     N3     Beta/Z      J
 ------------------------------------------------------------------------
   1   1  S 
   2   2  H     1   1.240000(  1)
   3   3  H     1   1.240000(  2)   2   92.110(  3)
 ------------------------------------------------------------------------
                         Z-Matrix orientation:                         
 ---------------------------------------------------------------------
 Center     Atomic     Atomic              Coordinates (Angstroms)
 Number     Number      Type              X           Y           Z
 ---------------------------------------------------------------------
    1         16             0        0.000000    0.000000    0.000000
    2          1             0        0.000000    0.000000    1.240000
    3          1             0        1.239159    0.000000   -0.045654
 ---------------------------------------------------------------------
                    Distance matrix (angstroms):
                    1          2          3
     1  S    0.000000
     2  H    1.240000   0.000000
     3  H    1.240000   1.785616   0.000000
                           Interatomic angles:
       H2-S1-H3= 92.11  
 Stoichiometry    H2S
 Framework group  C2V[C2(S),SGV(H2)]
 Deg. of freedom     2
 Full point group                 C2V     NOp   4
 Largest Abelian subgroup         C2V     NOp   4
 Largest concise Abelian subgroup C2      NOp   2
                         Standard orientation:                         
 ---------------------------------------------------------------------
 Center     Atomic     Atomic              Coordinates (Angstroms)
 Number     Number      Type              X           Y           Z
 ---------------------------------------------------------------------
    1         16             0        0.000000    0.000000    0.095613
    2          1             0        0.000000    0.892808   -0.764906
    3          1             0        0.000000   -0.892808   -0.764906
 ---------------------------------------------------------------------
 Rotational constants (GHZ):    359.9412803    314.5474023    167.8584054
 Standard basis: STO-3G (5D, 7F)
 There are     6 symmetry adapted basis functions of A1  symmetry.
 There are     0 symmetry adapted basis functions of A2  symmetry.
 There are     2 symmetry adapted basis functions of B1  symmetry.
 There are     3 symmetry adapted basis functions of B2  symmetry.
 Integral buffers will be    262144 words long.
 Raffenetti 2 integral format.
 Two-electron integral symmetry is turned on.
    11 basis functions,    33 primitive gaussians,    11 cartesian basis functions
     9 alpha electrons        9 beta electrons
       nuclear repulsion energy        13.9525416340 Hartrees.



 Warning!  S  atom    1 may be hypervalent but has no d functions.



 NAtoms=    3 NActive=    3 NUniq=    2 SFac= 2.76D+00 NAtFMM=   60 Big=F
 One-electron integrals computed using PRISM.
 NBasis=    11 RedAO= T  NBF=     6     0     2     3
 NBsUse=    11 1.00D-06 NBFU=     6     0     2     3
 Initial guess read from the read-write file:
 Initial guess orbital symmetries:
 Alpha Orbitals:
       Occupied  (A1) (A1) (B2) (A1) (B1) (A1) (B2) (A1) (B1)
       Virtual   (B2) (A1)
 Beta  Orbitals:
       Occupied  (A1) (A1) (B2) (A1) (B1) (A1) (B2) (A1) (B1)
       Virtual   (B2) (A1)
 <S**2> of initial guess= 0.0000
 Harris functional with IExCor=  205 diagonalized for initial guess.
 ExpMin= 1.69D-01 ExpMax= 5.33D+02 ExpMxC= 5.33D+02 IAcc=1 IRadAn=         1 AccDes= 1.00D-06
 HarFok:  IExCor= 205 AccDes= 1.00D-06 IRadAn=         1 IDoV=1
 ScaDFX=  1.000000  1.000000  1.000000  1.000000
 Requested convergence on RMS density matrix=1.00D-08 within 128 cycles.
 Requested convergence on MAX density matrix=1.00D-06.
 Requested convergence on             energy=1.00D-06.
 No special actions if energy rises.
 Keep R1 and R2 integrals in memory in canonical form, NReq=      423999.
 SCF Done:  E(UHF) =  -394.298839011     A.U. after    6 cycles
             Convg  =    0.4249D-08             -V/T =  2.0115
             S**2   =   0.0000
 Annihilation of the first spin contaminant:
 S**2 before annihilation     0.0000,   after     0.0000
 Variable Step   Value    
 -------- ---- -----------
     1      12    2.418849
 ------------------------------------------------------------------------
                         Z-MATRIX (ANGSTROMS AND DEGREES)
 CD Cent Atom  N1     Length/X     N2    Alpha/Y     N3     Beta/Z      J
 ------------------------------------------------------------------------
   1   1  S 
   2   2  H     1   1.280000(  1)
   3   3  H     1   1.280000(  2)   2   92.110(  3)
 ------------------------------------------------------------------------
                         Z-Matrix orientation:                         
 ---------------------------------------------------------------------
 Center     Atomic     Atomic              Coordinates (Angstroms)
 Number     Number      Type              X           Y           Z
 ---------------------------------------------------------------------
    1         16             0        0.000000    0.000000    0.000000
    2          1             0        0.000000    0.000000    1.280000
    3          1             0        1.279132    0.000000   -0.047127
 ---------------------------------------------------------------------
                    Distance matrix (angstroms):
                    1          2          3
     1  S    0.000000
     2  H    1.280000   0.000000
     3  H    1.280000   1.843216   0.000000
                           Interatomic angles:
       H2-S1-H3= 92.11  
 Stoichiometry    H2S
 Framework group  C2V[C2(S),SGV(H2)]
 Deg. of freedom     2
 Full point group                 C2V     NOp   4
 Largest Abelian subgroup         C2V     NOp   4
 Largest concise Abelian subgroup C2      NOp   2
                         Standard orientation:                         
 ---------------------------------------------------------------------
 Center     Atomic     Atomic              Coordinates (Angstroms)
 Number     Number      Type              X           Y           Z
 ---------------------------------------------------------------------
    1         16             0        0.000000    0.000000    0.098698
    2          1             0        0.000000    0.921608   -0.789581
    3          1             0        0.000000   -0.921608   -0.789581
 ---------------------------------------------------------------------
 Rotational constants (GHZ):    337.7964555    295.1953648    157.5311792
 Standard basis: STO-3G (5D, 7F)
 There are     6 symmetry adapted basis functions of A1  symmetry.
 There are     0 symmetry adapted basis functions of A2  symmetry.
 There are     2 symmetry adapted basis functions of B1  symmetry.
 There are     3 symmetry adapted basis functions of B2  symmetry.
 Integral buffers will be    262144 words long.
 Raffenetti 2 integral format.
 Two-electron integral symmetry is turned on.
    11 basis functions,    33 primitive gaussians,    11 cartesian basis functions
     9 alpha electrons        9 beta electrons
       nuclear repulsion energy        13.5165247079 Hartrees.
 NAtoms=    3 NActive=    3 NUniq=    2 SFac= 2.76D+00 NAtFMM=   60 Big=F
 One-electron integrals computed using PRISM.
 NBasis=    11 RedAO= T  NBF=     6     0     2     3
 NBsUse=    11 1.00D-06 NBFU=     6     0     2     3
 Initial guess read from the read-write file:
 Initial guess orbital symmetries:
 Alpha Orbitals:
       Occupied  (A1) (A1) (B2) (A1) (B1) (A1) (B2) (A1) (B1)
       Virtual   (B2) (A1)
 Beta  Orbitals:
       Occupied  (A1) (A1) (B2) (A1) (B1) (A1) (B2) (A1) (B1)
       Virtual   (B2) (A1)
 <S**2> of initial guess= 0.0000
 Harris functional with IExCor=  205 diagonalized for initial guess.
 ExpMin= 1.69D-01 ExpMax= 5.33D+02 ExpMxC= 5.33D+02 IAcc=1 IRadAn=         1 AccDes= 1.00D-06
 HarFok:  IExCor= 205 AccDes= 1.00D-06 IRadAn=         1 IDoV=1
 ScaDFX=  1.000000  1.000000  1.000000  1.000000
 Requested convergence on RMS density matrix=1.00D-08 within 128 cycles.
 Requested convergence on MAX density matrix=1.00D-06.
 Requested convergence on             energy=1.00D-06.
 No special actions if energy rises.
 Keep R1 and R2 integrals in memory in canonical form, NReq=      423999.
 SCF Done:  E(UHF) =  -394.307998003     A.U. after    6 cycles
             Convg  =    0.2698D-08             -V/T =  2.0117
             S**2   =   0.0000
 Annihilation of the first spin contaminant:
 S**2 before annihilation     0.0000,   after     0.0000
 Variable Step   Value    
 -------- ---- -----------
     1      13    2.494438
 ------------------------------------------------------------------------
                         Z-MATRIX (ANGSTROMS AND DEGREES)
 CD Cent Atom  N1     Length/X     N2    Alpha/Y     N3     Beta/Z      J
 ------------------------------------------------------------------------
   1   1  S 
   2   2  H     1   1.320000(  1)
   3   3  H     1   1.320000(  2)   2   92.110(  3)
 ------------------------------------------------------------------------
                         Z-Matrix orientation:                         
 ---------------------------------------------------------------------
 Center     Atomic     Atomic              Coordinates (Angstroms)
 Number     Number      Type              X           Y           Z
 ---------------------------------------------------------------------
    1         16             0        0.000000    0.000000    0.000000
    2          1             0        0.000000    0.000000    1.320000
    3          1             0        1.319105    0.000000   -0.048600
 ---------------------------------------------------------------------
                    Distance matrix (angstroms):
                    1          2          3
     1  S    0.000000
     2  H    1.320000   0.000000
     3  H    1.320000   1.900817   0.000000
                           Interatomic angles:
       H2-S1-H3= 92.11  
 Stoichiometry    H2S
 Framework group  C2V[C2(S),SGV(H2)]
 Deg. of freedom     2
 Full point group                 C2V     NOp   4
 Largest Abelian subgroup         C2V     NOp   4
 Largest concise Abelian subgroup C2      NOp   2
                         Standard orientation:                         
 ---------------------------------------------------------------------
 Center     Atomic     Atomic              Coordinates (Angstroms)
 Number     Number      Type              X           Y           Z
 ---------------------------------------------------------------------
    1         16             0        0.000000    0.000000    0.101782
    2          1             0        0.000000    0.950408   -0.814255
    3          1             0        0.000000   -0.950408   -0.814255
 ---------------------------------------------------------------------
 Rotational constants (GHZ):    317.6341326    277.5758068    148.1284918
 Standard basis: STO-3G (5D, 7F)
 There are     6 symmetry adapted basis functions of A1  symmetry.
 There are     0 symmetry adapted basis functions of A2  symmetry.
 There are     2 symmetry adapted basis functions of B1  symmetry.
 There are     3 symmetry adapted basis functions of B2  symmetry.
 Integral buffers will be    262144 words long.
 Raffenetti 2 integral format.
 Two-electron integral symmetry is turned on.
    11 basis functions,    33 primitive gaussians,    11 cartesian basis functions
     9 alpha electrons        9 beta electrons
       nuclear repulsion energy        13.1069330501 Hartrees.
 NAtoms=    3 NActive=    3 NUniq=    2 SFac= 2.76D+00 NAtFMM=   60 Big=F
 One-electron integrals computed using PRISM.
 NBasis=    11 RedAO= T  NBF=     6     0     2     3
 NBsUse=    11 1.00D-06 NBFU=     6     0     2     3
 Initial guess read from the read-write file:
 Initial guess orbital symmetries:
 Alpha Orbitals:
       Occupied  (A1) (A1) (B2) (A1) (B1) (A1) (B2) (A1) (B1)
       Virtual   (B2) (A1)
 Beta  Orbitals:
       Occupied  (A1) (A1) (B2) (A1) (B1) (A1) (B2) (A1) (B1)
       Virtual   (B2) (A1)
 <S**2> of initial guess= 0.0000
 Harris functional with IExCor=  205 diagonalized for initial guess.
 ExpMin= 1.69D-01 ExpMax= 5.33D+02 ExpMxC= 5.33D+02 IAcc=1 IRadAn=         1 AccDes= 1.00D-06
 HarFok:  IExCor= 205 AccDes= 1.00D-06 IRadAn=         1 IDoV=1
 ScaDFX=  1.000000  1.000000  1.000000  1.000000
 Requested convergence on RMS density matrix=1.00D-08 within 128 cycles.
 Requested convergence on MAX density matrix=1.00D-06.
 Requested convergence on             energy=1.00D-06.
 No special actions if energy rises.
 Keep R1 and R2 integrals in memory in canonical form, NReq=      423999.
 SCF Done:  E(UHF) =  -394.311512728     A.U. after    6 cycles
             Convg  =    0.2709D-08             -V/T =  2.0118
             S**2   =   0.0000
 Annihilation of the first spin contaminant:
 S**2 before annihilation     0.0000,   after     0.0000
 Variable Step   Value    
 -------- ---- -----------
     1      14    2.570028
 ------------------------------------------------------------------------
                         Z-MATRIX (ANGSTROMS AND DEGREES)
 CD Cent Atom  N1     Length/X     N2    Alpha/Y     N3     Beta/Z      J
 ------------------------------------------------------------------------
   1   1  S 
   2   2  H     1   1.360000(  1)
   3   3  H     1   1.360000(  2)   2   92.110(  3)
 ------------------------------------------------------------------------
                         Z-Matrix orientation:                         
 ---------------------------------------------------------------------
 Center     Atomic     Atomic              Coordinates (Angstroms)
 Number     Number      Type              X           Y           Z
 ---------------------------------------------------------------------
    1         16             0        0.000000    0.000000    0.000000
    2          1             0        0.000000    0.000000    1.360000
    3          1             0        1.359078    0.000000   -0.050073
 ---------------------------------------------------------------------
                    Distance matrix (angstroms):
                    1          2          3
     1  S    0.000000
     2  H    1.360000   0.000000
     3  H    1.360000   1.958417   0.000000
                           Interatomic angles:
       H2-S1-H3= 92.11  
 Stoichiometry    H2S
 Framework group  C2V[C2(S),SGV(H2)]
 Deg. of freedom     2
 Full point group                 C2V     NOp   4
 Largest Abelian subgroup         C2V     NOp   4
 Largest concise Abelian subgroup C2      NOp   2
                         Standard orientation:                         
 ---------------------------------------------------------------------
 Center     Atomic     Atomic              Coordinates (Angstroms)
 Number     Number      Type              X           Y           Z
 ---------------------------------------------------------------------
    1         16             0        0.000000    0.000000    0.104866
    2          1             0        0.000000    0.979209   -0.838930
    3          1             0        0.000000   -0.979209   -0.838930
 ---------------------------------------------------------------------
 Rotational constants (GHZ):    299.2245419    261.4879356    139.5431899
 Standard basis: STO-3G (5D, 7F)
 There are     6 symmetry adapted basis functions of A1  symmetry.
 There are     0 symmetry adapted basis functions of A2  symmetry.
 There are     2 symmetry adapted basis functions of B1  symmetry.
 There are     3 symmetry adapted basis functions of B2  symmetry.
 Integral buffers will be    262144 words long.
 Raffenetti 2 integral format.
 Two-electron integral symmetry is turned on.
    11 basis functions,    33 primitive gaussians,    11 cartesian basis functions
     9 alpha electrons        9 beta electrons
       nuclear repulsion energy        12.7214350192 Hartrees.
 NAtoms=    3 NActive=    3 NUniq=    2 SFac= 2.76D+00 NAtFMM=   60 Big=F
 One-electron integrals computed using PRISM.
 NBasis=    11 RedAO= T  NBF=     6     0     2     3
 NBsUse=    11 1.00D-06 NBFU=     6     0     2     3
 Initial guess read from the read-write file:
 Initial guess orbital symmetries:
 Alpha Orbitals:
       Occupied  (A1) (A1) (B2) (A1) (B1) (A1) (B2) (A1) (B1)
       Virtual   (B2) (A1)
 Beta  Orbitals:
       Occupied  (A1) (A1) (B2) (A1) (B1) (A1) (B2) (A1) (B1)
       Virtual   (B2) (A1)
 <S**2> of initial guess= 0.0000
 Harris functional with IExCor=  205 diagonalized for initial guess.
 ExpMin= 1.69D-01 ExpMax= 5.33D+02 ExpMxC= 5.33D+02 IAcc=1 IRadAn=         1 AccDes= 1.00D-06
 HarFok:  IExCor= 205 AccDes= 1.00D-06 IRadAn=         1 IDoV=1
 ScaDFX=  1.000000  1.000000  1.000000  1.000000
 Requested convergence on RMS density matrix=1.00D-08 within 128 cycles.
 Requested convergence on MAX density matrix=1.00D-06.
 Requested convergence on             energy=1.00D-06.
 No special actions if energy rises.
 Keep R1 and R2 integrals in memory in canonical form, NReq=      423999.
 SCF Done:  E(UHF) =  -394.310296807     A.U. after    6 cycles
             Convg  =    0.7472D-08             -V/T =  2.0120
             S**2   =   0.0000
 Annihilation of the first spin contaminant:
 S**2 before annihilation     0.0000,   after     0.0000
 Variable Step   Value    
 -------- ---- -----------
     1      15    2.645617
 ------------------------------------------------------------------------
                         Z-MATRIX (ANGSTROMS AND DEGREES)
 CD Cent Atom  N1     Length/X     N2    Alpha/Y     N3     Beta/Z      J
 ------------------------------------------------------------------------
   1   1  S 
   2   2  H     1   1.400000(  1)
   3   3  H     1   1.400000(  2)   2   92.110(  3)
 ------------------------------------------------------------------------
                         Z-Matrix orientation:                         
 ---------------------------------------------------------------------
 Center     Atomic     Atomic              Coordinates (Angstroms)
 Number     Number      Type              X           Y           Z
 ---------------------------------------------------------------------
    1         16             0        0.000000    0.000000    0.000000
    2          1             0        0.000000    0.000000    1.400000
    3          1             0        1.399051    0.000000   -0.051545
 ---------------------------------------------------------------------
                    Distance matrix (angstroms):
                    1          2          3
     1  S    0.000000
     2  H    1.400000   0.000000
     3  H    1.400000   2.016018   0.000000
                           Interatomic angles:
       H2-S1-H3= 92.11  
 Stoichiometry    H2S
 Framework group  C2V[C2(S),SGV(H2)]
 Deg. of freedom     2
 Full point group                 C2V     NOp   4
 Largest Abelian subgroup         C2V     NOp   4
 Largest concise Abelian subgroup C2      NOp   2
                         Standard orientation:                         
 ---------------------------------------------------------------------
 Center     Atomic     Atomic              Coordinates (Angstroms)
 Number     Number      Type              X           Y           Z
 ---------------------------------------------------------------------
    1         16             0        0.000000    0.000000    0.107951
    2          1             0        0.000000    1.008009   -0.863604
    3          1             0        0.000000   -1.008009   -0.863604
 ---------------------------------------------------------------------
 Rotational constants (GHZ):    282.3702615    246.7592274    131.6832062
 Standard basis: STO-3G (5D, 7F)
 There are     6 symmetry adapted basis functions of A1  symmetry.
 There are     0 symmetry adapted basis functions of A2  symmetry.
 There are     2 symmetry adapted basis functions of B1  symmetry.
 There are     3 symmetry adapted basis functions of B2  symmetry.
 Integral buffers will be    262144 words long.
 Raffenetti 2 integral format.
 Two-electron integral symmetry is turned on.
    11 basis functions,    33 primitive gaussians,    11 cartesian basis functions
     9 alpha electrons        9 beta electrons
       nuclear repulsion energy        12.3579654473 Hartrees.
 NAtoms=    3 NActive=    3 NUniq=    2 SFac= 2.76D+00 NAtFMM=   60 Big=F
 One-electron integrals computed using PRISM.
 NBasis=    11 RedAO= T  NBF=     6     0     2     3
 NBsUse=    11 1.00D-06 NBFU=     6     0     2     3
 Initial guess read from the read-write file:
 Initial guess orbital symmetries:
 Alpha Orbitals:
       Occupied  (A1) (A1) (B2) (A1) (B1) (A1) (B2) (A1) (B1)
       Virtual   (B2) (A1)
 Beta  Orbitals:
       Occupied  (A1) (A1) (B2) (A1) (B1) (A1) (B2) (A1) (B1)
       Virtual   (B2) (A1)
 <S**2> of initial guess= 0.0000
 Harris functional with IExCor=  205 diagonalized for initial guess.
 ExpMin= 1.69D-01 ExpMax= 5.33D+02 ExpMxC= 5.33D+02 IAcc=1 IRadAn=         1 AccDes= 1.00D-06
[...]
                         Z-MATRIX (ANGSTROMS AND DEGREES)
 CD Cent Atom  N1     Length/X     N2    Alpha/Y     N3     Beta/Z      J
 ------------------------------------------------------------------------
   1   1  S 
   2   2  H     1   1.880000(  1)
   3   3  H     1   1.880000(  2)   2   92.110(  3)
 ------------------------------------------------------------------------
                         Z-Matrix orientation:                         
 ---------------------------------------------------------------------
 Center     Atomic     Atomic              Coordinates (Angstroms)
 Number     Number      Type              X           Y           Z
 ---------------------------------------------------------------------
    1         16             0        0.000000    0.000000    0.000000
    2          1             0        0.000000    0.000000    1.880000
    3          1             0        1.878725    0.000000   -0.069218
 ---------------------------------------------------------------------
                    Distance matrix (angstroms):
                    1          2          3
     1  S    0.000000
     2  H    1.880000   0.000000
     3  H    1.880000   2.707224   0.000000
                           Interatomic angles:
       H2-S1-H3= 92.11  
 Stoichiometry    H2S
 Framework group  C2V[C2(S),SGV(H2)]
 Deg. of freedom     2
 Full point group                 C2V     NOp   4
 Largest Abelian subgroup         C2V     NOp   4
 Largest concise Abelian subgroup C2      NOp   2
                         Standard orientation:                         
 ---------------------------------------------------------------------
 Center     Atomic     Atomic              Coordinates (Angstroms)
 Number     Number      Type              X           Y           Z
 ---------------------------------------------------------------------
    1         16             0        0.000000    0.000000    0.144962
    2          1             0        0.000000    1.353612   -1.159697
    3          1             0        0.000000   -1.353612   -1.159697
 ---------------------------------------------------------------------
 Rotational constants (GHZ):    156.5883071    136.8402234     73.0248653
 Standard basis: STO-3G (5D, 7F)
 There are     6 symmetry adapted basis functions of A1  symmetry.
 There are     0 symmetry adapted basis functions of A2  symmetry.
 There are     2 symmetry adapted basis functions of B1  symmetry.
 There are     3 symmetry adapted basis functions of B2  symmetry.
 Integral buffers will be    262144 words long.
 Raffenetti 2 integral format.
 Two-electron integral symmetry is turned on.
    11 basis functions,    33 primitive gaussians,    11 cartesian basis functions
     9 alpha electrons        9 beta electrons
       nuclear repulsion energy         9.2027402267 Hartrees.
 NAtoms=    3 NActive=    3 NUniq=    2 SFac= 2.76D+00 NAtFMM=   60 Big=F
 One-electron integrals computed using PRISM.
 NBasis=    11 RedAO= T  NBF=     6     0     2     3
 NBsUse=    11 1.00D-06 NBFU=     6     0     2     3
 Initial guess read from the read-write file:
 Initial guess orbital symmetries:
 Alpha Orbitals:
       Occupied  (A1) (A1) (B2) (A1) (B1) (A1) (B2) (A1) (B1)
       Virtual   (B2) (A1)
 Beta  Orbitals:
       Occupied  (A1) (A1) (B2) (A1) (B1) (A1) (B2) (A1) (B1)
       Virtual   (B2) (A1)
 <S**2> of initial guess= 0.0000
 Harris functional with IExCor=  205 diagonalized for initial guess.
 ExpMin= 1.69D-01 ExpMax= 5.33D+02 ExpMxC= 5.33D+02 IAcc=1 IRadAn=         1 AccDes= 1.00D-06
 HarFok:  IExCor= 205 AccDes= 1.00D-06 IRadAn=         1 IDoV=1
 ScaDFX=  1.000000  1.000000  1.000000  1.000000
 Requested convergence on RMS density matrix=1.00D-08 within 128 cycles.
 Requested convergence on MAX density matrix=1.00D-06.
 Requested convergence on             energy=1.00D-06.
 No special actions if energy rises.
 Keep R1 and R2 integrals in memory in canonical form, NReq=      423999.
 SCF Done:  E(UHF) =  -394.098874234     A.U. after    7 cycles
             Convg  =    0.1819D-09             -V/T =  2.0114
             S**2   =   0.0000
 Annihilation of the first spin contaminant:
 S**2 before annihilation     0.0000,   after     0.0000
 Variable Step   Value    
 -------- ---- -----------
     1      28    3.628274
 ------------------------------------------------------------------------
                         Z-MATRIX (ANGSTROMS AND DEGREES)
 CD Cent Atom  N1     Length/X     N2    Alpha/Y     N3     Beta/Z      J
 ------------------------------------------------------------------------
   1   1  S 
   2   2  H     1   1.920000(  1)
   3   3  H     1   1.920000(  2)   2   92.110(  3)
 ------------------------------------------------------------------------
                         Z-Matrix orientation:                         
 ---------------------------------------------------------------------
 Center     Atomic     Atomic              Coordinates (Angstroms)
 Number     Number      Type              X           Y           Z
 ---------------------------------------------------------------------
    1         16             0        0.000000    0.000000    0.000000
    2          1             0        0.000000    0.000000    1.920000
    3          1             0        1.918698    0.000000   -0.070691
 ---------------------------------------------------------------------
                    Distance matrix (angstroms):
                    1          2          3
     1  S    0.000000
     2  H    1.920000   0.000000
     3  H    1.920000   2.764824   0.000000
                           Interatomic angles:
       H2-S1-H3= 92.11  
 Stoichiometry    H2S
 Framework group  C2V[C2(S),SGV(H2)]
 Deg. of freedom     2
 Full point group                 C2V     NOp   4
 Largest Abelian subgroup         C2V     NOp   4
 Largest concise Abelian subgroup C2      NOp   2
                         Standard orientation:                         
 ---------------------------------------------------------------------
 Center     Atomic     Atomic              Coordinates (Angstroms)
 Number     Number      Type              X           Y           Z
 ---------------------------------------------------------------------
    1         16             0        0.000000    0.000000    0.148046
    2          1             0        0.000000    1.382412   -1.184371
    3          1             0        0.000000   -1.382412   -1.184371
 ---------------------------------------------------------------------
 Rotational constants (GHZ):    150.1317580    131.1979399     70.0138574
 Standard basis: STO-3G (5D, 7F)
 There are     6 symmetry adapted basis functions of A1  symmetry.
 There are     0 symmetry adapted basis functions of A2  symmetry.
 There are     2 symmetry adapted basis functions of B1  symmetry.
 There are     3 symmetry adapted basis functions of B2  symmetry.
 Integral buffers will be    262144 words long.
 Raffenetti 2 integral format.
 Two-electron integral symmetry is turned on.
    11 basis functions,    33 primitive gaussians,    11 cartesian basis functions
     9 alpha electrons        9 beta electrons
       nuclear repulsion energy         9.0110164720 Hartrees.
 NAtoms=    3 NActive=    3 NUniq=    2 SFac= 2.76D+00 NAtFMM=   60 Big=F
 One-electron integrals computed using PRISM.
 NBasis=    11 RedAO= T  NBF=     6     0     2     3
 NBsUse=    11 1.00D-06 NBFU=     6     0     2     3
 Initial guess read from the read-write file:
 Initial guess orbital symmetries:
 Alpha Orbitals:
       Occupied  (A1) (A1) (B2) (A1) (B1) (A1) (B2) (A1) (B1)
       Virtual   (B2) (A1)
 Beta  Orbitals:
       Occupied  (A1) (A1) (B2) (A1) (B1) (A1) (B2) (A1) (B1)
       Virtual   (B2) (A1)
 <S**2> of initial guess= 0.0000
 Harris functional with IExCor=  205 diagonalized for initial guess.
 ExpMin= 1.69D-01 ExpMax= 5.33D+02 ExpMxC= 5.33D+02 IAcc=1 IRadAn=         1 AccDes= 1.00D-06
 HarFok:  IExCor= 205 AccDes= 1.00D-06 IRadAn=         1 IDoV=1
 ScaDFX=  1.000000  1.000000  1.000000  1.000000
 Requested convergence on RMS density matrix=1.00D-08 within 128 cycles.
 Requested convergence on MAX density matrix=1.00D-06.
 Requested convergence on             energy=1.00D-06.
 No special actions if energy rises.
 Keep R1 and R2 integrals in memory in canonical form, NReq=      423999.
 SCF Done:  E(UHF) =  -394.077595190     A.U. after    7 cycles
             Convg  =    0.1174D-09             -V/T =  2.0113
             S**2   =   0.0000
 Annihilation of the first spin contaminant:
 S**2 before annihilation     0.0000,   after     0.0000
 Variable Step   Value    
 -------- ---- -----------
     1      29    3.703863
 ------------------------------------------------------------------------
                         Z-MATRIX (ANGSTROMS AND DEGREES)
 CD Cent Atom  N1     Length/X     N2    Alpha/Y     N3     Beta/Z      J
 ------------------------------------------------------------------------
   1   1  S 
   2   2  H     1   1.960000(  1)
   3   3  H     1   1.960000(  2)   2   92.110(  3)
 ------------------------------------------------------------------------
                         Z-Matrix orientation:                         
 ---------------------------------------------------------------------
 Center     Atomic     Atomic              Coordinates (Angstroms)
 Number     Number      Type              X           Y           Z
 ---------------------------------------------------------------------
    1         16             0        0.000000    0.000000    0.000000
    2          1             0        0.000000    0.000000    1.960000
    3          1             0        1.958671    0.000000   -0.072164
 ---------------------------------------------------------------------
                    Distance matrix (angstroms):
                    1          2          3
     1  S    0.000000
     2  H    1.960000   0.000000
     3  H    1.960000   2.822425   0.000000
                           Interatomic angles:
       H2-S1-H3= 92.11  
 Stoichiometry    H2S
 Framework group  C2V[C2(S),SGV(H2)]
 Deg. of freedom     2
 Full point group                 C2V     NOp   4
 Largest Abelian subgroup         C2V     NOp   4
 Largest concise Abelian subgroup C2      NOp   2
                         Standard orientation:                         
 ---------------------------------------------------------------------
 Center     Atomic     Atomic              Coordinates (Angstroms)
 Number     Number      Type              X           Y           Z
 ---------------------------------------------------------------------
    1         16             0        0.000000    0.000000    0.151131
    2          1             0        0.000000    1.411212   -1.209046
    3          1             0        0.000000   -1.411212   -1.209046
 ---------------------------------------------------------------------
 Rotational constants (GHZ):    144.0664600    125.8975650     67.1853093
 Standard basis: STO-3G (5D, 7F)
 There are     6 symmetry adapted basis functions of A1  symmetry.
 There are     0 symmetry adapted basis functions of A2  symmetry.
 There are     2 symmetry adapted basis functions of B1  symmetry.
 There are     3 symmetry adapted basis functions of B2  symmetry.
 Integral buffers will be    262144 words long.
 Raffenetti 2 integral format.
 Two-electron integral symmetry is turned on.
    11 basis functions,    33 primitive gaussians,    11 cartesian basis functions
     9 alpha electrons        9 beta electrons
       nuclear repulsion energy         8.8271181766 Hartrees.
 NAtoms=    3 NActive=    3 NUniq=    2 SFac= 2.76D+00 NAtFMM=   60 Big=F
 One-electron integrals computed using PRISM.
 NBasis=    11 RedAO= T  NBF=     6     0     2     3
 NBsUse=    11 1.00D-06 NBFU=     6     0     2     3
 Initial guess read from the read-write file:
 Initial guess orbital symmetries:
 Alpha Orbitals:
       Occupied  (A1) (A1) (B2) (A1) (B1) (A1) (B2) (A1) (B1)
       Virtual   (B2) (A1)
 Beta  Orbitals:
       Occupied  (A1) (A1) (B2) (A1) (B1) (A1) (B2) (A1) (B1)
       Virtual   (B2) (A1)
 <S**2> of initial guess= 0.0000
 Harris functional with IExCor=  205 diagonalized for initial guess.
 ExpMin= 1.69D-01 ExpMax= 5.33D+02 ExpMxC= 5.33D+02 IAcc=1 IRadAn=         1 AccDes= 1.00D-06
 HarFok:  IExCor= 205 AccDes= 1.00D-06 IRadAn=         1 IDoV=1
 ScaDFX=  1.000000  1.000000  1.000000  1.000000
 Requested convergence on RMS density matrix=1.00D-08 within 128 cycles.
 Requested convergence on MAX density matrix=1.00D-06.
 Requested convergence on             energy=1.00D-06.
 No special actions if energy rises.
 Keep R1 and R2 integrals in memory in canonical form, NReq=      423999.
 SCF Done:  E(UHF) =  -394.056384347     A.U. after    7 cycles
             Convg  =    0.6558D-10             -V/T =  2.0112
             S**2   =   0.0000
 Annihilation of the first spin contaminant:
 S**2 before annihilation     0.0000,   after     0.0000
 Variable Step   Value    
 -------- ---- -----------
     1      30    3.779452
 ------------------------------------------------------------------------
                         Z-MATRIX (ANGSTROMS AND DEGREES)
 CD Cent Atom  N1     Length/X     N2    Alpha/Y     N3     Beta/Z      J
 ------------------------------------------------------------------------
   1   1  S 
   2   2  H     1   2.000000(  1)
   3   3  H     1   2.000000(  2)   2   92.110(  3)
 ------------------------------------------------------------------------
                         Z-Matrix orientation:                         
 ---------------------------------------------------------------------
 Center     Atomic     Atomic              Coordinates (Angstroms)
 Number     Number      Type              X           Y           Z
 ---------------------------------------------------------------------
    1         16             0        0.000000    0.000000    0.000000
    2          1             0        0.000000    0.000000    2.000000
    3          1             0        1.998644    0.000000   -0.073636
 ---------------------------------------------------------------------
                    Distance matrix (angstroms):
                    1          2          3
     1  S    0.000000
     2  H    2.000000   0.000000
     3  H    2.000000   2.880025   0.000000
                           Interatomic angles:
       H2-S1-H3= 92.11  
 Stoichiometry    H2S
 Framework group  C2V[C2(S),SGV(H2)]
 Deg. of freedom     2
 Full point group                 C2V     NOp   4
 Largest Abelian subgroup         C2V     NOp   4
 Largest concise Abelian subgroup C2      NOp   2
                         Standard orientation:                         
 ---------------------------------------------------------------------
 Center     Atomic     Atomic              Coordinates (Angstroms)
 Number     Number      Type              X           Y           Z
 ---------------------------------------------------------------------
    1         16             0        0.000000    0.000000    0.154215
    2          1             0        0.000000    1.440013   -1.233720
    3          1             0        0.000000   -1.440013   -1.233720
 ---------------------------------------------------------------------
 Rotational constants (GHZ):    138.3614282    120.9120214     64.5247710
 Standard basis: STO-3G (5D, 7F)
 There are     6 symmetry adapted basis functions of A1  symmetry.
 There are     0 symmetry adapted basis functions of A2  symmetry.
 There are     2 symmetry adapted basis functions of B1  symmetry.
 There are     3 symmetry adapted basis functions of B2  symmetry.
 Integral buffers will be    262144 words long.
 Raffenetti 2 integral format.
 Two-electron integral symmetry is turned on.
    11 basis functions,    33 primitive gaussians,    11 cartesian basis functions
     9 alpha electrons        9 beta electrons
       nuclear repulsion energy         8.6505758131 Hartrees.
 NAtoms=    3 NActive=    3 NUniq=    2 SFac= 2.76D+00 NAtFMM=   60 Big=F
 One-electron integrals computed using PRISM.
 NBasis=    11 RedAO= T  NBF=     6     0     2     3
 NBsUse=    11 1.00D-06 NBFU=     6     0     2     3
 Initial guess read from the read-write file:
 Initial guess orbital symmetries:
 Alpha Orbitals:
       Occupied  (A1) (A1) (B2) (A1) (B1) (A1) (B2) (A1) (B1)
       Virtual   (B2) (A1)
 Beta  Orbitals:
       Occupied  (A1) (A1) (B2) (A1) (B1) (A1) (B2) (A1) (B1)
       Virtual   (B2) (A1)
 <S**2> of initial guess= 0.0000
 Harris functional with IExCor=  205 diagonalized for initial guess.
 ExpMin= 1.69D-01 ExpMax= 5.33D+02 ExpMxC= 5.33D+02 IAcc=1 IRadAn=         1 AccDes= 1.00D-06
 HarFok:  IExCor= 205 AccDes= 1.00D-06 IRadAn=         1 IDoV=1
 ScaDFX=  1.000000  1.000000  1.000000  1.000000
 Requested convergence on RMS density matrix=1.00D-08 within 128 cycles.
 Requested convergence on MAX density matrix=1.00D-06.
 Requested convergence on             energy=1.00D-06.
 No special actions if energy rises.
 Keep R1 and R2 integrals in memory in canonical form, NReq=      423999.
 SCF Done:  E(UHF) =  -394.035325574     A.U. after    7 cycles
             Convg  =    0.1193D-09             -V/T =  2.0110
             S**2   =   0.0000
 Annihilation of the first spin contaminant:
 S**2 before annihilation     0.0000,   after     0.0000
 Scan completed.

 Summary of the potential surface scan:
   N       r          SCF    
 ----  ---------  -----------
    1     0.8000   -393.31045
    2     0.8400   -393.52270
    3     0.8800   -393.69712
    4     0.9200   -393.83968
    5     0.9600   -393.95542
    6     1.0000   -394.04858
    7     1.0400   -394.12274
    8     1.0800   -394.18093
    9     1.1200   -394.22566
   10     1.1600   -394.25907
   11     1.2000   -394.28295
   12     1.2400   -394.29884
   13     1.2800   -394.30800
   14     1.3200   -394.31151
   15     1.3600   -394.31030
   16     1.4000   -394.30512
   17     1.4400   -394.29665
   18     1.4800   -394.28542
   19     1.5200   -394.27192
   20     1.5600   -394.25655
   21     1.6000   -394.23965
   22     1.6400   -394.22152
   23     1.6800   -394.20241
   24     1.7200   -394.18253
   25     1.7600   -394.16209
   26     1.8000   -394.14124
   27     1.8400   -394.12013
   28     1.8800   -394.09887
   29     1.9200   -394.07760
   30     1.9600   -394.05638
   31     2.0000   -394.03533
 ----  ---------  -----------
  
 1|1|UNPC-UNK|Scan|UHF|STO-3G|H2S1|PCUSER|18-Jun-2017|1||# UHF/STO-3G S
 CAN||H2S-UHF-sto-3g-SCAN-GEO-SYM||0,1|S|H,1,r|H,1,r,2,aHSH||r=0.8,s,30
 ,0.04|aHSH=92.11||Version=IA32W-G03RevC.01|HF=-393.310453,-393.5226959
 ,-393.6971182,-393.8396787,-393.9554154,-394.0485781,-394.1227449,-394
 .1809263,-394.2256555,-394.2590658,-394.2829549,-394.298839,-394.30799
 8,-394.3115127,-394.3102968,-394.3051232,-394.2966467,-394.285423,-394
 .2719243,-394.2565532,-394.2396538,-394.221521,-394.2024084,-394.18253
 5,-394.1620904,-394.1412394,-394.1201255,-394.0988742,-394.0775952,-39
 4.0563843,-394.0353256|S2=0.,0.,0.,0.,0.,0.,0.,0.,0.,0.,0.,0.,0.,0.,0.
 ,0.,0.,0.,0.,0.,0.,0.,0.,0.,0.,0.,0.,0.,0.,0.,0.|S2-1=0.,0.,0.,0.,0.,0
 .,0.,0.,0.,0.,0.,0.,0.,0.,0.,0.,0.,0.,0.,0.,0.,0.,0.,0.,0.,0.,0.,0.,0.
 ,0.,0.|S2A=0.,0.,0.,0.,0.,0.,0.,0.,0.,0.,0.,0.,0.,0.,0.,0.,0.,0.,0.,0.
 ,0.,0.,0.,0.,0.,0.,0.,0.,0.,0.,0.|RMSD=4.305e-009,1.930e-009,4.237e-00
 9,1.137e-010,1.560e-010,1.355e-010,9.473e-011,4.708e-011,2.256e-012,6.
 589e-009,5.233e-009,4.249e-009,2.698e-009,2.709e-009,7.472e-009,2.326e
 -010,2.660e-010,2.937e-010,3.162e-010,3.331e-010,3.437e-010,3.475e-010
 ,3.437e-010,3.316e-010,3.103e-010,2.789e-010,2.363e-010,1.819e-010,1.1
 74e-010,6.558e-011,1.193e-010|PG=C02V [C2(S1),SGV(H2)]||@


 MEMORIES ARE LIKE AN ENGLISH GRAMMER LESSON -
 PRESENT TENSE, AND PAST PERFECT.
 Job cpu time:  0 days  0 hours  0 minutes 13.0 seconds.
 File lengths (MBytes):  RWF=     17 Int=      0 D2E=      0 Chk=     12 Scr=      1
 Normal termination of Gaussian 03 at Sun Jun 18 14:42:44 2017.
