 Entering Link 1 = C:\G03W\l1.exe PID=      2464.
  
 Copyright (c) 1988,1990,1992,1993,1995,1998,2003, Gaussian, Inc.
                  All Rights Reserved.
  
 This is the Gaussian(R) 03 program.  It is based on the
 the Gaussian(R) 98 system (copyright 1998, Gaussian, Inc.),
 the Gaussian(R) 94 system (copyright 1995, Gaussian, Inc.),
 the Gaussian 92(TM) system (copyright 1992, Gaussian, Inc.),
 the Gaussian 90(TM) system (copyright 1990, Gaussian, Inc.),
 the Gaussian 88(TM) system (copyright 1988, Gaussian, Inc.),
 the Gaussian 86(TM) system (copyright 1986, Carnegie Mellon
 University), and the Gaussian 82(TM) system (copyright 1983,
 Carnegie Mellon University). Gaussian is a federally registered
 trademark of Gaussian, Inc.
  
 This software contains proprietary and confidential information,
 including trade secrets, belonging to Gaussian, Inc.
  
 This software is provided under written license and may be
 used, copied, transmitted, or stored only in accord with that
 written license.
  
 The following legend is applicable only to US Government
 contracts under DFARS:
  
                    RESTRICTED RIGHTS LEGEND
  
 Use, duplication or disclosure by the US Government is subject
 to restrictions as set forth in subparagraph (c)(1)(ii) of the
 Rights in Technical Data and Computer Software clause at DFARS
 252.227-7013.
  
 Gaussian, Inc.
 Carnegie Office Park, Building 6, Pittsburgh, PA 15106 USA
  
 The following legend is applicable only to US Government
 contracts under FAR:
  
                    RESTRICTED RIGHTS LEGEND
  
 Use, reproduction and disclosure by the US Government is subject
 to restrictions as set forth in subparagraph (c) of the
 Commercial Computer Software - Restricted Rights clause at FAR
 52.227-19.
  
 Gaussian, Inc.
 Carnegie Office Park, Building 6, Pittsburgh, PA 15106 USA
  
  
 ---------------------------------------------------------------
 Warning -- This program may not be used in any manner that
 competes with the business of Gaussian, Inc. or will provide
 assistance to any competitor of Gaussian, Inc.  The licensee
 of this program is prohibited from giving any competitor of
 Gaussian, Inc. access to this program.  By using this program,
 the user acknowledges that Gaussian, Inc. is engaged in the
 business of creating and licensing software in the field of
 computational chemistry and represents and warrants to the
 licensee that it is not a competitor of Gaussian, Inc. and that
 it will not use this program in any manner prohibited above.
 ---------------------------------------------------------------
  

 Cite this work as:
 Gaussian 03, Revision B.03,
 M. J. Frisch, G. W. Trucks, H. B. Schlegel, G. E. Scuseria, 
 M. A. Robb, J. R. Cheeseman, J. A. Montgomery, Jr., T. Vreven, 
 K. N. Kudin, J. C. Burant, J. M. Millam, S. S. Iyengar, J. Tomasi, 
 V. Barone, B. Mennucci, M. Cossi, G. Scalmani, N. Rega, 
 G. A. Petersson, H. Nakatsuji, M. Hada, M. Ehara, K. Toyota, 
 R. Fukuda, J. Hasegawa, M. Ishida, T. Nakajima, Y. Honda, O. Kitao, 
 H. Nakai, M. Klene, X. Li, J. E. Knox, H. P. Hratchian, J. B. Cross, 
 C. Adamo, J. Jaramillo, R. Gomperts, R. E. Stratmann, O. Yazyev, 
 A. J. Austin, R. Cammi, C. Pomelli, J. W. Ochterski, P. Y. Ayala, 
 K. Morokuma, G. A. Voth, P. Salvador, J. J. Dannenberg, 
 V. G. Zakrzewski, S. Dapprich, A. D. Daniels, M. C. Strain, 
 O. Farkas, D. K. Malick, A. D. Rabuck, K. Raghavachari, 
 J. B. Foresman, J. V. Ortiz, Q. Cui, A. G. Baboul, S. Clifford, 
 J. Cioslowski, B. B. Stefanov, G. Liu, A. Liashenko, P. Piskorz, 
 I. Komaromi, R. L. Martin, D. J. Fox, T. Keith, M. A. Al-Laham, 
 C. Y. Peng, A. Nanayakkara, M. Challacombe, P. M. W. Gill, 
 B. Johnson, W. Chen, M. W. Wong, C. Gonzalez, and J. A. Pople, 
 Gaussian, Inc., Pittsburgh PA, 2003.
 
 *********************************************
 Gaussian 03:  x86-Win32-G03RevB.03 4-May-2003
                  19-Jun-2017 
 *********************************************
 %Chk=H2S-UHF-sto-3g-SCAN-GEO-SYM
 Default route:  MaxDisk=2000MB
 ---------------------------
 # uhf/sto-3g scan guess=mix
 ---------------------------
 1/38=1,60=1/1,8;
 2/17=6,18=5,29=3,40=1/2;
 3/6=3,11=2,16=1,25=1,30=1/1,2,3;
 4/7=2,9=2,13=1/1;
 5/5=2,38=5/2;
 6/7=2,8=2,9=2,10=2,18=1,28=1/1;
 1/60=1/8(1);
 99/9=1/99;
 2/29=3/2;
 3/6=3,11=2,16=1,25=1,30=1/1,2,3;
 4/5=5,7=2,9=2,16=3/1;
 5/5=2,38=5/2;
 1/60=1/8(-4);
 99/9=1/99;
 ---------------------------
 H2S-UHF-sto-3g-SCAN-GEO-SYM
 ---------------------------
 Symbolic Z-matrix:
 Charge =  0 Multiplicity = 1
 S
 H                    1    r
 H                    1    r        2    aHSH
       Variables:
  r                     6.     Scan 50   -0.11   
  aHSH                 92.11                     
 
 Scan the potential surface.
 Variable   Value     No. Steps Step-Size
 -------- ----------- --------- ---------
     1       6.000000      50     -0.1100
 A total of     51 points will be computed.
 ------------------------------------------------------------------------
                         Z-MATRIX (ANGSTROMS AND DEGREES)
 CD Cent Atom  N1     Length/X     N2    Alpha/Y     N3     Beta/Z      J
 ------------------------------------------------------------------------
   1   1  S 
   2   2  H     1   6.000000(  1)
   3   3  H     1   6.000000(  2)   2   92.110(  3)
 ------------------------------------------------------------------------
                         Z-Matrix orientation:                         
 ---------------------------------------------------------------------
 Center     Atomic     Atomic              Coordinates (Angstroms)
 Number     Number      Type              X           Y           Z
 ---------------------------------------------------------------------
    1         16             0        0.000000    0.000000    0.000000
    2          1             0        0.000000    0.000000    6.000000
    3          1             0        5.995932    0.000000   -0.220909
 ---------------------------------------------------------------------
                    Distance matrix (angstroms):
                    1          2          3
     1  S    0.000000
     2  H    6.000000   0.000000
     3  H    6.000000   8.640076   0.000000
                           Interatomic angles:
       H2-S1-H3= 92.11  
 Stoichiometry    H2S
 Framework group  C2V[C2(S),SGV(H2)]
 Deg. of freedom     2
 Full point group                 C2V     NOp   4
 Largest Abelian subgroup         C2V     NOp   4
 Largest concise Abelian subgroup C2      NOp   2
                         Standard orientation:                         
 ---------------------------------------------------------------------
 Center     Atomic     Atomic              Coordinates (Angstroms)
 Number     Number      Type              X           Y           Z
 ---------------------------------------------------------------------
    1         16             0        0.000000    0.000000    0.462645
    2          1             0        0.000000    4.320038   -3.701160
    3          1             0        0.000000   -4.320038   -3.701160
 ---------------------------------------------------------------------
 Rotational constants (GHZ):     15.3734920     13.4346690      7.1694190
 Standard basis: STO-3G (5D, 7F)
 There are     6 symmetry adapted basis functions of A1  symmetry.
 There are     0 symmetry adapted basis functions of A2  symmetry.
 There are     2 symmetry adapted basis functions of B1  symmetry.
 There are     3 symmetry adapted basis functions of B2  symmetry.
 Integral buffers will be    262144 words long.
 Raffenetti 2 integral format.
 Two-electron integral symmetry is turned on.
    11 basis functions,    33 primitive gaussians,    11 cartesian basis functions
     9 alpha electrons        9 beta electrons
       nuclear repulsion energy         2.8835252710 Hartrees.
 NAtoms=    3 NActive=    3 NUniq=    2 SFac= 2.76D+00 NAtFMM=   60 Big=F
 One-electron integrals computed using PRISM.
 NBasis=    11 RedAO= T  NBF=     6     0     2     3
 NBsUse=    11 1.00D-06 NBFU=     6     0     2     3
 SCF N**3 symmetry information disabled.
 Harris functional with IExCor=  205 diagonalized for initial guess.
 ExpMin= 1.69D-01 ExpMax= 5.33D+02 ExpMxC= 5.33D+02 IAcc=1 IRadAn=         1 AccDes= 1.00D-06
 HarFok:  IExCor= 205 AccDes= 1.00D-06 IRadAn=         1 IDoV=1
 ScaDFX=  1.000000  1.000000  1.000000  1.000000
 Initial guess orbital symmetries:
 Alpha Orbitals:
       Occupied  (A1) (A1) (B1) (B2) (A1) (A1) (B1) (B2) (A1)
       Virtual   (A1) (B2)
 Beta  Orbitals:
       Occupied  (A1) (A1) (B1) (B2) (A1) (A1) (B1) (B2) (A1)
       Virtual   (A1) (B2)
 The electronic state of the initial guess is 1-A1.
 <S**2> of initial guess= 1.0000
 Requested convergence on RMS density matrix=1.00D-08 within 128 cycles.
 Requested convergence on MAX density matrix=1.00D-06.
 Requested convergence on             energy=1.00D-06.
 No special actions if energy rises.
 Keep R1 and R2 integrals in memory in canonical form, NReq=      423999.
 Rare condition: small coef for last iteration:  0.000D+00
 SCF Done:  E(UHF) =  -393.609155884     A.U. after   13 cycles
             Convg  =    0.7744D-08             -V/T =  2.0074
             S**2   =   0.0000
 Annihilation of the first spin contaminant:
 S**2 before annihilation     0.0000,   after     0.0000

 **********************************************************************

            Population analysis using the SCF density.

 **********************************************************************

 Orbital symmetries:
 Alpha Orbitals:
       Occupied  (A1) (A1) (A1) (B2) (B1) (A1) (B1) (B2) (A1)
       Virtual   (B2) (A1)
 Beta  Orbitals:
       Occupied  (A1) (A1) (A1) (B2) (B1) (A1) (B1) (B2) (A1)
       Virtual   (B2) (A1)
 The electronic state is 1-A1.
 Alpha  occ. eigenvalues --  -90.64187  -8.56596  -6.19999  -6.19229  -6.19229
 Alpha  occ. eigenvalues --   -0.73211  -0.23892  -0.23892  -0.11033
 Alpha virt. eigenvalues --   -0.04908   0.15867
  Beta  occ. eigenvalues --  -90.64187  -8.56596  -6.19999  -6.19229  -6.19229
  Beta  occ. eigenvalues --   -0.73211  -0.23892  -0.23892  -0.11033
  Beta virt. eigenvalues --   -0.04908   0.15867
          Condensed to atoms (all electrons):
              1          2          3
     1  S   16.000000   0.000000   0.000000
     2  H    0.000000   1.000000   0.000000
     3  H    0.000000   0.000000   1.000000
 Mulliken atomic charges:
              1
     1  S    0.000000
     2  H    0.000000
     3  H    0.000000
 Sum of Mulliken charges=   0.00000
 Atomic charges with hydrogens summed into heavy atoms:
              1
     1  S    0.000000
     2  H    0.000000
     3  H    0.000000
 Sum of Mulliken charges=   0.00000
          Atomic-Atomic Spin Densities.
              1          2          3
     1  S    0.000000   0.000000   0.000000
     2  H    0.000000   0.000000   0.000000
     3  H    0.000000   0.000000   0.000000
 Mulliken atomic spin densities:
              1
     1  S    0.000000
     2  H    0.000000
     3  H    0.000000
 Sum of Mulliken spin densities=   0.00000
 Electronic spatial extent (au):  <R**2>=   270.1098
 Charge=     0.0000 electrons
 Dipole moment (field-independent basis, Debye):
    X=     0.0000    Y=     0.0000    Z=     0.0000  Tot=     0.0000
 Quadrupole moment (field-independent basis, Debye-Ang):
   XX=   -13.2404   YY=   -13.2404   ZZ=    -9.5007
   XY=     0.0000   XZ=     0.0000   YZ=     0.0000
 Traceless Quadrupole moment (field-independent basis, Debye-Ang):
   XX=    -1.2466   YY=    -1.2466   ZZ=     2.4931
   XY=     0.0000   XZ=     0.0000   YZ=     0.0000
 Octapole moment (field-independent basis, Debye-Ang**2):
  XXX=     0.0000  YYY=     0.0000  ZZZ=     8.6394  XYY=     0.0000
  XXY=     0.0000  XXZ=     1.1496  XZZ=     0.0000  YZZ=     0.0000
  YYZ=     1.1497  XYZ=     0.0000
 Hexadecapole moment (field-independent basis, Debye-Ang**3):
 XXXX=   -11.6714 YYYY=  -207.3237 ZZZZ=  -160.3325 XXXY=     0.0000
 XXXZ=     0.0000 YYYX=     0.0000 YYYZ=     0.0000 ZZZX=     0.0000
 ZZZY=     0.0000 XXYY=   -36.4992 XXZZ=   -29.4678 YYZZ=   -62.0765
 XXYZ=     0.0000 YYXZ=     0.0000 ZZXY=     0.0000
 N-N= 2.883525271026D+00 E-N=-9.454687164124D+02  KE= 3.907087289167D+02
                          Isotropic Fermi Contact Couplings
        Atom                 a.u.       MegaHertz       Gauss      10(-4) cm-1
     1  S(33)              0.00000       0.00000       0.00000       0.00000
     2  H(1)               0.00000       0.00000       0.00000       0.00000
     3  H(1)               0.00000       0.00000       0.00000       0.00000
 --------------------------------------------------------
       Center         ----  Spin Dipole Couplings  ----
                      3XX-RR        3YY-RR        3ZZ-RR
 --------------------------------------------------------
     1   Atom        0.000000      0.000000      0.000000
     2   Atom        0.000000      0.000000      0.000000
     3   Atom        0.000000      0.000000      0.000000
 --------------------------------------------------------
                        XY            XZ            YZ
 --------------------------------------------------------
     1   Atom        0.000000      0.000000      0.000000
     2   Atom        0.000000      0.000000      0.000000
     3   Atom        0.000000      0.000000      0.000000
 --------------------------------------------------------


 ---------------------------------------------------------------------------------
              Anisotropic Spin Dipole Couplings in Principal Axis System
 ---------------------------------------------------------------------------------

       Atom             a.u.   MegaHertz   Gauss  10(-4) cm-1        Axes

              Baa     0.0000     0.000     0.000     0.000  0.0000  0.0000  1.0000
     1 S(33)  Bbb     0.0000     0.000     0.000     0.000  0.0000  1.0000  0.0000
              Bcc     0.0000     0.000     0.000     0.000  1.0000  0.0000  0.0000
 
              Baa     0.0000     0.000     0.000     0.000  0.0000 -0.6202  0.7844
     2 H(1)   Bbb     0.0000     0.000     0.000     0.000  1.0000  0.0000  0.0000
              Bcc     0.0000     0.000     0.000     0.000  0.0000  0.7844  0.6202
 
              Baa     0.0000     0.000     0.000     0.000  0.0000  0.6202  0.7844
     3 H(1)   Bbb     0.0000     0.000     0.000     0.000  1.0000  0.0000  0.0000
              Bcc     0.0000     0.000     0.000     0.000  0.0000  0.7844 -0.6202
 

 ---------------------------------------------------------------------------------

 Variable Step   Value    
 -------- ---- -----------
     1       1   11.130487
 ------------------------------------------------------------------------
                         Z-MATRIX (ANGSTROMS AND DEGREES)
 CD Cent Atom  N1     Length/X     N2    Alpha/Y     N3     Beta/Z      J
 ------------------------------------------------------------------------
   1   1  S 
   2   2  H     1   5.890000(  1)
   3   3  H     1   5.890000(  2)   2   92.110(  3)
 ------------------------------------------------------------------------
                         Z-Matrix orientation:                         
 ---------------------------------------------------------------------
 Center     Atomic     Atomic              Coordinates (Angstroms)
 Number     Number      Type              X           Y           Z
 ---------------------------------------------------------------------
    1         16             0        0.000000    0.000000    0.000000
    2          1             0        0.000000    0.000000    5.890000
    3          1             0        5.886006    0.000000   -0.216859
 ---------------------------------------------------------------------
                    Distance matrix (angstroms):
                    1          2          3
     1  S    0.000000
     2  H    5.890000   0.000000
     3  H    5.890000   8.481674   0.000000
                           Interatomic angles:
       H2-S1-H3= 92.11  
 Stoichiometry    H2S
 Framework group  C2V[C2(S),SGV(H2)]
 Deg. of freedom     2
 Full point group                 C2V     NOp   4
 Largest Abelian subgroup         C2V     NOp   4
 Largest concise Abelian subgroup C2      NOp   2
                         Standard orientation:                         
 ---------------------------------------------------------------------
 Center     Atomic     Atomic              Coordinates (Angstroms)
 Number     Number      Type              X           Y           Z
 ---------------------------------------------------------------------
    1         16             0        0.000000    0.000000    0.454163
    2          1             0        0.000000    4.240837   -3.633306
    3          1             0        0.000000   -4.240837   -3.633306
 ---------------------------------------------------------------------
 Rotational constants (GHZ):     15.9530761     13.9411591      7.4397077
 Standard basis: STO-3G (5D, 7F)
 There are     6 symmetry adapted basis functions of A1  symmetry.
 There are     0 symmetry adapted basis functions of A2  symmetry.
 There are     2 symmetry adapted basis functions of B1  symmetry.
 There are     3 symmetry adapted basis functions of B2  symmetry.
 Integral buffers will be    262144 words long.
 Raffenetti 2 integral format.
 Two-electron integral symmetry is turned on.
    11 basis functions,    33 primitive gaussians,    11 cartesian basis functions
     9 alpha electrons        9 beta electrons
       nuclear repulsion energy         2.9373771861 Hartrees.
 NAtoms=    3 NActive=    3 NUniq=    2 SFac= 2.76D+00 NAtFMM=   60 Big=F
 One-electron integrals computed using PRISM.
 NBasis=    11 RedAO= T  NBF=     6     0     2     3
 NBsUse=    11 1.00D-06 NBFU=     6     0     2     3
 SCF N**3 symmetry information disabled.
 Initial guess read from the read-write file:
 Initial guess orbital symmetries:
 Alpha Orbitals:
       Occupied  (A1) (A1) (A1) (B2) (B1) (A1) (B1) (B2) (A1)
       Virtual   (B2) (A1)
 Beta  Orbitals:
       Occupied  (A1) (A1) (A1) (B2) (B1) (A1) (B1) (B2) (A1)
       Virtual   (B2) (A1)
 <S**2> of initial guess= 0.0000
 Harris functional with IExCor=  205 diagonalized for initial guess.
 ExpMin= 1.69D-01 ExpMax= 5.33D+02 ExpMxC= 5.33D+02 IAcc=1 IRadAn=         1 AccDes= 1.00D-06
 HarFok:  IExCor= 205 AccDes= 1.00D-06 IRadAn=         1 IDoV=1
 ScaDFX=  1.000000  1.000000  1.000000  1.000000
 Requested convergence on RMS density matrix=1.00D-08 within 128 cycles.
 Requested convergence on MAX density matrix=1.00D-06.
 Requested convergence on             energy=1.00D-06.
 No special actions if energy rises.
 Keep R1 and R2 integrals in memory in canonical form, NReq=      423999.
 SCF Done:  E(UHF) =  -393.609727801     A.U. after    5 cycles
             Convg  =    0.1308D-12             -V/T =  2.0074
             S**2   =   0.0000
 Annihilation of the first spin contaminant:
 S**2 before annihilation     0.0000,   after     0.0000
 Variable Step   Value    
 -------- ---- -----------
     1       2   10.922617
 ------------------------------------------------------------------------
                         Z-MATRIX (ANGSTROMS AND DEGREES)
 CD Cent Atom  N1     Length/X     N2    Alpha/Y     N3     Beta/Z      J
 ------------------------------------------------------------------------
   1   1  S 
   2   2  H     1   5.780000(  1)
   3   3  H     1   5.780000(  2)   2   92.110(  3)
 ------------------------------------------------------------------------
                         Z-Matrix orientation:                         
 ---------------------------------------------------------------------
 Center     Atomic     Atomic              Coordinates (Angstroms)
 Number     Number      Type              X           Y           Z
 ---------------------------------------------------------------------
    1         16             0        0.000000    0.000000    0.000000
    2          1             0        0.000000    0.000000    5.780000
    3          1             0        5.776081    0.000000   -0.212809
 ---------------------------------------------------------------------
                    Distance matrix (angstroms):
                    1          2          3
     1  S    0.000000
     2  H    5.780000   0.000000
     3  H    5.780000   8.323273   0.000000
                           Interatomic angles:
       H2-S1-H3= 92.11  
 Stoichiometry    H2S
 Framework group  C2V[C2(S),SGV(H2)]
 Deg. of freedom     2
 Full point group                 C2V     NOp   4
 Largest Abelian subgroup         C2V     NOp   4
 Largest concise Abelian subgroup C2      NOp   2
                         Standard orientation:                         
 ---------------------------------------------------------------------
 Center     Atomic     Atomic              Coordinates (Angstroms)
 Number     Number      Type              X           Y           Z
 ---------------------------------------------------------------------
    1         16             0        0.000000    0.000000    0.445681
    2          1             0        0.000000    4.161636   -3.565451
    3          1             0        0.000000   -4.161636   -3.565451
 ---------------------------------------------------------------------
 Rotational constants (GHZ):     16.5660646     14.4768407      7.7255745
 Standard basis: STO-3G (5D, 7F)
 There are     6 symmetry adapted basis functions of A1  symmetry.
 There are     0 symmetry adapted basis functions of A2  symmetry.
 There are     2 symmetry adapted basis functions of B1  symmetry.
 There are     3 symmetry adapted basis functions of B2  symmetry.
 Integral buffers will be    262144 words long.
 Raffenetti 2 integral format.
 Two-electron integral symmetry is turned on.
    11 basis functions,    33 primitive gaussians,    11 cartesian basis functions
     9 alpha electrons        9 beta electrons
       nuclear repulsion energy         2.9932788281 Hartrees.
 NAtoms=    3 NActive=    3 NUniq=    2 SFac= 2.76D+00 NAtFMM=   60 Big=F
 One-electron integrals computed using PRISM.
 NBasis=    11 RedAO= T  NBF=     6     0     2     3
 NBsUse=    11 1.00D-06 NBFU=     6     0     2     3
 SCF N**3 symmetry information disabled.
 Initial guess read from the read-write file:
 Initial guess orbital symmetries:
 Alpha Orbitals:
       Occupied  (A1) (A1) (A1) (B2) (B1) (A1) (B1) (B2) (A1)
       Virtual   (B2) (A1)
 Beta  Orbitals:
       Occupied  (A1) (A1) (A1) (B2) (B1) (A1) (B1) (B2) (A1)
       Virtual   (B2) (A1)
 <S**2> of initial guess= 0.0000
 Harris functional with IExCor=  205 diagonalized for initial guess.
 ExpMin= 1.69D-01 ExpMax= 5.33D+02 ExpMxC= 5.33D+02 IAcc=1 IRadAn=         1 AccDes= 1.00D-06
 HarFok:  IExCor= 205 AccDes= 1.00D-06 IRadAn=         1 IDoV=1
 ScaDFX=  1.000000  1.000000  1.000000  1.000000
 Requested convergence on RMS density matrix=1.00D-08 within 128 cycles.
 Requested convergence on MAX density matrix=1.00D-06.
 Requested convergence on             energy=1.00D-06.
 No special actions if energy rises.
 Keep R1 and R2 integrals in memory in canonical form, NReq=      423999.
 SCF Done:  E(UHF) =  -393.610321490     A.U. after    5 cycles
             Convg  =    0.2890D-12             -V/T =  2.0074
             S**2   =   0.0000
 Annihilation of the first spin contaminant:
 S**2 before annihilation     0.0000,   after     0.0000
 Variable Step   Value    
 -------- ---- -----------
     1       3   10.714747
 ------------------------------------------------------------------------
                         Z-MATRIX (ANGSTROMS AND DEGREES)
 CD Cent Atom  N1     Length/X     N2    Alpha/Y     N3     Beta/Z      J
 ------------------------------------------------------------------------
   1   1  S 
   2   2  H     1   5.670000(  1)
   3   3  H     1   5.670000(  2)   2   92.110(  3)
 ------------------------------------------------------------------------
                         Z-Matrix orientation:                         
 ---------------------------------------------------------------------
 Center     Atomic     Atomic              Coordinates (Angstroms)
 Number     Number      Type              X           Y           Z
 ---------------------------------------------------------------------
    1         16             0        0.000000    0.000000    0.000000
    2          1             0        0.000000    0.000000    5.670000
    3          1             0        5.666156    0.000000   -0.208759
 ---------------------------------------------------------------------
                    Distance matrix (angstroms):
                    1          2          3
     1  S    0.000000
     2  H    5.670000   0.000000
     3  H    5.670000   8.164871   0.000000
                           Interatomic angles:
       H2-S1-H3= 92.11  
 Stoichiometry    H2S
 Framework group  C2V[C2(S),SGV(H2)]
 Deg. of freedom     2
 Full point group                 C2V     NOp   4
 Largest Abelian subgroup         C2V     NOp   4
 Largest concise Abelian subgroup C2      NOp   2
                         Standard orientation:                         
 ---------------------------------------------------------------------
 Center     Atomic     Atomic              Coordinates (Angstroms)
 Number     Number      Type              X           Y           Z
 ---------------------------------------------------------------------
    1         16             0        0.000000    0.000000    0.437200
    2          1             0        0.000000    4.082436   -3.497596
    3          1             0        0.000000   -4.082436   -3.497596
 ---------------------------------------------------------------------
 Rotational constants (GHZ):     17.2150746     15.0440011      8.0282400
 Standard basis: STO-3G (5D, 7F)
 There are     6 symmetry adapted basis functions of A1  symmetry.
 There are     0 symmetry adapted basis functions of A2  symmetry.
 There are     2 symmetry adapted basis functions of B1  symmetry.
 There are     3 symmetry adapted basis functions of B2  symmetry.
 Integral buffers will be    262144 words long.
 Raffenetti 2 integral format.
 Two-electron integral symmetry is turned on.
    11 basis functions,    33 primitive gaussians,    11 cartesian basis functions
     9 alpha electrons        9 beta electrons
       nuclear repulsion energy         3.0513494931 Hartrees.
 NAtoms=    3 NActive=    3 NUniq=    2 SFac= 2.76D+00 NAtFMM=   60 Big=F
 One-electron integrals computed using PRISM.
 NBasis=    11 RedAO= T  NBF=     6     0     2     3
 NBsUse=    11 1.00D-06 NBFU=     6     0     2     3
 SCF N**3 symmetry information disabled.
 Initial guess read from the read-write file:
 Initial guess orbital symmetries:
 Alpha Orbitals:
       Occupied  (A1) (A1) (A1) (B2) (B1) (A1) (B1) (B2) (A1)
       Virtual   (B2) (A1)
 Beta  Orbitals:
       Occupied  (A1) (A1) (A1) (B2) (B1) (A1) (B1) (B2) (A1)
       Virtual   (B2) (A1)
 <S**2> of initial guess= 0.0000
 Harris functional with IExCor=  205 diagonalized for initial guess.
 ExpMin= 1.69D-01 ExpMax= 5.33D+02 ExpMxC= 5.33D+02 IAcc=1 IRadAn=         1 AccDes= 1.00D-06
 HarFok:  IExCor= 205 AccDes= 1.00D-06 IRadAn=         1 IDoV=1
 ScaDFX=  1.000000  1.000000  1.000000  1.000000
 Requested convergence on RMS density matrix=1.00D-08 within 128 cycles.
 Requested convergence on MAX density matrix=1.00D-06.
 Requested convergence on             energy=1.00D-06.
 No special actions if energy rises.
 Keep R1 and R2 integrals in memory in canonical form, NReq=      423999.
 SCF Done:  E(UHF) =  -393.610938221     A.U. after    5 cycles
             Convg  =    0.6430D-12             -V/T =  2.0074
             S**2   =   0.0000
 Annihilation of the first spin contaminant:
 S**2 before annihilation     0.0000,   after     0.0000
 Variable Step   Value    
 -------- ---- -----------
     1       4   10.506877
 ------------------------------------------------------------------------
                         Z-MATRIX (ANGSTROMS AND DEGREES)
 CD Cent Atom  N1     Length/X     N2    Alpha/Y     N3     Beta/Z      J
 ------------------------------------------------------------------------
   1   1  S 
   2   2  H     1   5.560000(  1)
   3   3  H     1   5.560000(  2)   2   92.110(  3)
 ------------------------------------------------------------------------
                         Z-Matrix orientation:                         
 ---------------------------------------------------------------------
 Center     Atomic     Atomic              Coordinates (Angstroms)
 Number     Number      Type              X           Y           Z
 ---------------------------------------------------------------------
    1         16             0        0.000000    0.000000    0.000000
    2          1             0        0.000000    0.000000    5.560000
    3          1             0        5.556230    0.000000   -0.204709
 ---------------------------------------------------------------------
                    Distance matrix (angstroms):
                    1          2          3
     1  S    0.000000
     2  H    5.560000   0.000000
     3  H    5.560000   8.006470   0.000000
                           Interatomic angles:
       H2-S1-H3= 92.11  
 Stoichiometry    H2S
 Framework group  C2V[C2(S),SGV(H2)]
 Deg. of freedom     2
 Full point group                 C2V     NOp   4
 Largest Abelian subgroup         C2V     NOp   4
 Largest concise Abelian subgroup C2      NOp   2
                         Standard orientation:                         
 ---------------------------------------------------------------------
 Center     Atomic     Atomic              Coordinates (Angstroms)
 Number     Number      Type              X           Y           Z
 ---------------------------------------------------------------------
    1         16             0        0.000000    0.000000    0.428718
    2          1             0        0.000000    4.003235   -3.429742
    3          1             0        0.000000   -4.003235   -3.429742
 ---------------------------------------------------------------------
 Rotational constants (GHZ):     17.9029849     15.6451557      8.3490465
 Standard basis: STO-3G (5D, 7F)
 There are     6 symmetry adapted basis functions of A1  symmetry.
 There are     0 symmetry adapted basis functions of A2  symmetry.
 There are     2 symmetry adapted basis functions of B1  symmetry.
 There are     3 symmetry adapted basis functions of B2  symmetry.
 Integral buffers will be    262144 words long.
 Raffenetti 2 integral format.
 Two-electron integral symmetry is turned on.
    11 basis functions,    33 primitive gaussians,    11 cartesian basis functions
     9 alpha electrons        9 beta electrons
       nuclear repulsion energy         3.1117179184 Hartrees.
 NAtoms=    3 NActive=    3 NUniq=    2 SFac= 2.76D+00 NAtFMM=   60 Big=F
 One-electron integrals computed using PRISM.
 NBasis=    11 RedAO= T  NBF=     6     0     2     3
 NBsUse=    11 1.00D-06 NBFU=     6     0     2     3
 SCF N**3 symmetry information disabled.
 Initial guess read from the read-write file:
 Initial guess orbital symmetries:
 Alpha Orbitals:
       Occupied  (A1) (A1) (A1) (B2) (B1) (A1) (B1) (B2) (A1)
       Virtual   (B2) (A1)
 Beta  Orbitals:
       Occupied  (A1) (A1) (A1) (B2) (B1) (A1) (B1) (B2) (A1)
       Virtual   (B2) (A1)
 <S**2> of initial guess= 0.0000
 Harris functional with IExCor=  205 diagonalized for initial guess.
 ExpMin= 1.69D-01 ExpMax= 5.33D+02 ExpMxC= 5.33D+02 IAcc=1 IRadAn=         1 AccDes= 1.00D-06
 HarFok:  IExCor= 205 AccDes= 1.00D-06 IRadAn=         1 IDoV=1
 ScaDFX=  1.000000  1.000000  1.000000  1.000000
 Requested convergence on RMS density matrix=1.00D-08 within 128 cycles.
 Requested convergence on MAX density matrix=1.00D-06.
 Requested convergence on             energy=1.00D-06.
 No special actions if energy rises.
 Keep R1 and R2 integrals in memory in canonical form, NReq=      423999.
 SCF Done:  E(UHF) =  -393.611579368     A.U. after    5 cycles
             Convg  =    0.1409D-11             -V/T =  2.0074
             S**2   =   0.0000
 Annihilation of the first spin contaminant:
 S**2 before annihilation     0.0000,   after     0.0000
 Variable Step   Value    
 -------- ---- -----------
     1       5   10.299007
 ------------------------------------------------------------------------
                         Z-MATRIX (ANGSTROMS AND DEGREES)
 CD Cent Atom  N1     Length/X     N2    Alpha/Y     N3     Beta/Z      J
 ------------------------------------------------------------------------
   1   1  S 
   2   2  H     1   5.450000(  1)
   3   3  H     1   5.450000(  2)   2   92.110(  3)
 ------------------------------------------------------------------------
                         Z-Matrix orientation:                         
 ---------------------------------------------------------------------
 Center     Atomic     Atomic              Coordinates (Angstroms)
 Number     Number      Type              X           Y           Z
 ---------------------------------------------------------------------
    1         16             0        0.000000    0.000000    0.000000
    2          1             0        0.000000    0.000000    5.450000
    3          1             0        5.446305    0.000000   -0.200659
 ---------------------------------------------------------------------
                    Distance matrix (angstroms):
                    1          2          3
     1  S    0.000000
     2  H    5.450000   0.000000
     3  H    5.450000   7.848069   0.000000
                           Interatomic angles:
       H2-S1-H3= 92.11  
 Stoichiometry    H2S
 Framework group  C2V[C2(S),SGV(H2)]
 Deg. of freedom     2
 Full point group                 C2V     NOp   4
 Largest Abelian subgroup         C2V     NOp   4
 Largest concise Abelian subgroup C2      NOp   2
                         Standard orientation:                         
 ---------------------------------------------------------------------
 Center     Atomic     Atomic              Coordinates (Angstroms)
 Number     Number      Type              X           Y           Z
 ---------------------------------------------------------------------
    1         16             0        0.000000    0.000000    0.420236
    2          1             0        0.000000    3.924034   -3.361887
    3          1             0        0.000000   -3.924034   -3.361887
 ---------------------------------------------------------------------
 Rotational constants (GHZ):     18.6329673     16.2830767      8.6894734
 Standard basis: STO-3G (5D, 7F)
 There are     6 symmetry adapted basis functions of A1  symmetry.
 There are     0 symmetry adapted basis functions of A2  symmetry.
 There are     2 symmetry adapted basis functions of B1  symmetry.
 There are     3 symmetry adapted basis functions of B2  symmetry.
 Integral buffers will be    262144 words long.
 Raffenetti 2 integral format.
 Two-electron integral symmetry is turned on.
    11 basis functions,    33 primitive gaussians,    11 cartesian basis functions
     9 alpha electrons        9 beta electrons
       nuclear repulsion energy         3.1745232342 Hartrees.
 NAtoms=    3 NActive=    3 NUniq=    2 SFac= 2.76D+00 NAtFMM=   60 Big=F
 One-electron integrals computed using PRISM.
 NBasis=    11 RedAO= T  NBF=     6     0     2     3
 NBsUse=    11 1.00D-06 NBFU=     6     0     2     3
 SCF N**3 symmetry information disabled.
 Initial guess read from the read-write file:
 Initial guess orbital symmetries:
 Alpha Orbitals:
       Occupied  (A1) (A1) (A1) (B2) (B1) (A1) (B1) (B2) (A1)
       Virtual   (B2) (A1)
 Beta  Orbitals:
       Occupied  (A1) (A1) (A1) (B2) (B1) (A1) (B1) (B2) (A1)
       Virtual   (B2) (A1)
 <S**2> of initial guess= 0.0000
 Harris functional with IExCor=  205 diagonalized for initial guess.
 ExpMin= 1.69D-01 ExpMax= 5.33D+02 ExpMxC= 5.33D+02 IAcc=1 IRadAn=         1 AccDes= 1.00D-06
 HarFok:  IExCor= 205 AccDes= 1.00D-06 IRadAn=         1 IDoV=1
 ScaDFX=  1.000000  1.000000  1.000000  1.000000
 Requested convergence on RMS density matrix=1.00D-08 within 128 cycles.
 Requested convergence on MAX density matrix=1.00D-06.
 Requested convergence on             energy=1.00D-06.
 No special actions if energy rises.
 Keep R1 and R2 integrals in memory in canonical form, NReq=      423999.
 SCF Done:  E(UHF) =  -393.612246422     A.U. after    5 cycles
             Convg  =    0.3050D-11             -V/T =  2.0074
             S**2   =   0.0000
 Annihilation of the first spin contaminant:
 S**2 before annihilation     0.0000,   after     0.0000
 Variable Step   Value    
 -------- ---- -----------
     1       6   10.091138
 ------------------------------------------------------------------------
                         Z-MATRIX (ANGSTROMS AND DEGREES)
 CD Cent Atom  N1     Length/X     N2    Alpha/Y     N3     Beta/Z      J
 ------------------------------------------------------------------------
   1   1  S 
   2   2  H     1   5.340000(  1)
   3   3  H     1   5.340000(  2)   2   92.110(  3)
 ------------------------------------------------------------------------
                         Z-Matrix orientation:                         
 ---------------------------------------------------------------------
 Center     Atomic     Atomic              Coordinates (Angstroms)
 Number     Number      Type              X           Y           Z
 ---------------------------------------------------------------------
    1         16             0        0.000000    0.000000    0.000000
    2          1             0        0.000000    0.000000    5.340000
    3          1             0        5.336379    0.000000   -0.196609
 ---------------------------------------------------------------------
                    Distance matrix (angstroms):
                    1          2          3
     1  S    0.000000
     2  H    5.340000   0.000000
     3  H    5.340000   7.689667   0.000000
                           Interatomic angles:
       H2-S1-H3= 92.11  
 Stoichiometry    H2S
 Framework group  C2V[C2(S),SGV(H2)]
 Deg. of freedom     2
 Full point group                 C2V     NOp   4
 Largest Abelian subgroup         C2V     NOp   4
 Largest concise Abelian subgroup C2      NOp   2
                         Standard orientation:                         
 ---------------------------------------------------------------------
 Center     Atomic     Atomic              Coordinates (Angstroms)
 Number     Number      Type              X           Y           Z
 ---------------------------------------------------------------------
    1         16             0        0.000000    0.000000    0.411754
    2          1             0        0.000000    3.844834   -3.294033
    3          1             0        0.000000   -3.844834   -3.294033
 ---------------------------------------------------------------------
 Rotational constants (GHZ):     19.4085242     16.9608245      9.0511539
 Standard basis: STO-3G (5D, 7F)
 There are     6 symmetry adapted basis functions of A1  symmetry.
 There are     0 symmetry adapted basis functions of A2  symmetry.
 There are     2 symmetry adapted basis functions of B1  symmetry.
 There are     3 symmetry adapted basis functions of B2  symmetry.
 Integral buffers will be    262144 words long.
 Raffenetti 2 integral format.
 Two-electron integral symmetry is turned on.
    11 basis functions,    33 primitive gaussians,    11 cartesian basis functions
     9 alpha electrons        9 beta electrons
       nuclear repulsion energy         3.2399160349 Hartrees.
 NAtoms=    3 NActive=    3 NUniq=    2 SFac= 2.76D+00 NAtFMM=   60 Big=F
 One-electron integrals computed using PRISM.
 NBasis=    11 RedAO= T  NBF=     6     0     2     3
 NBsUse=    11 1.00D-06 NBFU=     6     0     2     3
 SCF N**3 symmetry information disabled.
 Initial guess read from the read-write file:
 Initial guess orbital symmetries:
 Alpha Orbitals:
       Occupied  (A1) (A1) (A1) (B2) (B1) (A1) (B1) (B2) (A1)
       Virtual   (B2) (A1)
 Beta  Orbitals:
       Occupied  (A1) (A1) (A1) (B2) (B1) (A1) (B1) (B2) (A1)
       Virtual   (B2) (A1)
 <S**2> of initial guess= 0.0000
 Harris functional with IExCor=  205 diagonalized for initial guess.
 ExpMin= 1.69D-01 ExpMax= 5.33D+02 ExpMxC= 5.33D+02 IAcc=1 IRadAn=         1 AccDes= 1.00D-06
 HarFok:  IExCor= 205 AccDes= 1.00D-06 IRadAn=         1 IDoV=1
 ScaDFX=  1.000000  1.000000  1.000000  1.000000
 Requested convergence on RMS density matrix=1.00D-08 within 128 cycles.
 Requested convergence on MAX density matrix=1.00D-06.
 Requested convergence on             energy=1.00D-06.
 No special actions if energy rises.
 Keep R1 and R2 integrals in memory in canonical form, NReq=      423999.
 SCF Done:  E(UHF) =  -393.612941008     A.U. after    5 cycles
             Convg  =    0.6536D-11             -V/T =  2.0074
             S**2   =   0.0000
 Annihilation of the first spin contaminant:
 S**2 before annihilation     0.0000,   after     0.0000
 Variable Step   Value    
 -------- ---- -----------
     1       7    9.883268
 ------------------------------------------------------------------------
                         Z-MATRIX (ANGSTROMS AND DEGREES)
 CD Cent Atom  N1     Length/X     N2    Alpha/Y     N3     Beta/Z      J
 ------------------------------------------------------------------------
   1   1  S 
   2   2  H     1   5.230000(  1)
   3   3  H     1   5.230000(  2)   2   92.110(  3)
 ------------------------------------------------------------------------
                         Z-Matrix orientation:                         
 ---------------------------------------------------------------------
 Center     Atomic     Atomic              Coordinates (Angstroms)
 Number     Number      Type              X           Y           Z
 ---------------------------------------------------------------------
    1         16             0        0.000000    0.000000    0.000000
    2          1             0        0.000000    0.000000    5.230000
    3          1             0        5.226454    0.000000   -0.192559
 ---------------------------------------------------------------------
                    Distance matrix (angstroms):
                    1          2          3
     1  S    0.000000
     2  H    5.230000   0.000000
     3  H    5.230000   7.531266   0.000000
                           Interatomic angles:
       H2-S1-H3= 92.11  
 Stoichiometry    H2S
 Framework group  C2V[C2(S),SGV(H2)]
 Deg. of freedom     2
 Full point group                 C2V     NOp   4
 Largest Abelian subgroup         C2V     NOp   4
 Largest concise Abelian subgroup C2      NOp   2
                         Standard orientation:                         
 ---------------------------------------------------------------------
 Center     Atomic     Atomic              Coordinates (Angstroms)
 Number     Number      Type              X           Y           Z
 ---------------------------------------------------------------------
    1         16             0        0.000000    0.000000    0.403272
    2          1             0        0.000000    3.765633   -3.226178
    3          1             0        0.000000   -3.765633   -3.226178
 ---------------------------------------------------------------------
 Rotational constants (GHZ):     20.2335296     17.6817846      9.4358947
 Standard basis: STO-3G (5D, 7F)
 There are     6 symmetry adapted basis functions of A1  symmetry.
 There are     0 symmetry adapted basis functions of A2  symmetry.
 There are     2 symmetry adapted basis functions of B1  symmetry.
 There are     3 symmetry adapted basis functions of B2  symmetry.
 Integral buffers will be    262144 words long.
 Raffenetti 2 integral format.
 Two-electron integral symmetry is turned on.
    11 basis functions,    33 primitive gaussians,    11 cartesian basis functions
     9 alpha electrons        9 beta electrons
       nuclear repulsion energy         3.3080595844 Hartrees.
 NAtoms=    3 NActive=    3 NUniq=    2 SFac= 2.76D+00 NAtFMM=   60 Big=F
 One-electron integrals computed using PRISM.
 NBasis=    11 RedAO= T  NBF=     6     0     2     3
 NBsUse=    11 1.00D-06 NBFU=     6     0     2     3
 SCF N**3 symmetry information disabled.
 Initial guess read from the read-write file:
 Initial guess orbital symmetries:
 Alpha Orbitals:
       Occupied  (A1) (A1) (A1) (B2) (B1) (A1) (B1) (B2) (A1)
       Virtual   (B2) (A1)
 Beta  Orbitals:
       Occupied  (A1) (A1) (A1) (B2) (B1) (A1) (B1) (B2) (A1)
       Virtual   (B2) (A1)
 <S**2> of initial guess= 0.0000
 Harris functional with IExCor=  205 diagonalized for initial guess.
 ExpMin= 1.69D-01 ExpMax= 5.33D+02 ExpMxC= 5.33D+02 IAcc=1 IRadAn=         1 AccDes= 1.00D-06
 HarFok:  IExCor= 205 AccDes= 1.00D-06 IRadAn=         1 IDoV=1
 ScaDFX=  1.000000  1.000000  1.000000  1.000000
 Requested convergence on RMS density matrix=1.00D-08 within 128 cycles.
 Requested convergence on MAX density matrix=1.00D-06.
 Requested convergence on             energy=1.00D-06.
 No special actions if energy rises.
 Keep R1 and R2 integrals in memory in canonical form, NReq=      423999.
 SCF Done:  E(UHF) =  -393.613664908     A.U. after    5 cycles
             Convg  =    0.1392D-10             -V/T =  2.0074
             S**2   =   0.0000
 Annihilation of the first spin contaminant:
 S**2 before annihilation     0.0000,   after     0.0000
 Variable Step   Value    
 -------- ---- -----------
     1       8    9.675398
 ------------------------------------------------------------------------
                         Z-MATRIX (ANGSTROMS AND DEGREES)
 CD Cent Atom  N1     Length/X     N2    Alpha/Y     N3     Beta/Z      J
 ------------------------------------------------------------------------
   1   1  S 
   2   2  H     1   5.120000(  1)
   3   3  H     1   5.120000(  2)   2   92.110(  3)
 ------------------------------------------------------------------------
                         Z-Matrix orientation:                         
 ---------------------------------------------------------------------
 Center     Atomic     Atomic              Coordinates (Angstroms)
 Number     Number      Type              X           Y           Z
 ---------------------------------------------------------------------
    1         16             0        0.000000    0.000000    0.000000
    2          1             0        0.000000    0.000000    5.120000
    3          1             0        5.116529    0.000000   -0.188509
 ---------------------------------------------------------------------
                    Distance matrix (angstroms):
                    1          2          3
     1  S    0.000000
     2  H    5.120000   0.000000
     3  H    5.120000   7.372864   0.000000
                           Interatomic angles:
       H2-S1-H3= 92.11  
 Stoichiometry    H2S
 Framework group  C2V[C2(S),SGV(H2)]
 Deg. of freedom     2
 Full point group                 C2V     NOp   4
 Largest Abelian subgroup         C2V     NOp   4
 Largest concise Abelian subgroup C2      NOp   2
                         Standard orientation:                         
 ---------------------------------------------------------------------
 Center     Atomic     Atomic              Coordinates (Angstroms)
 Number     Number      Type              X           Y           Z
 ---------------------------------------------------------------------
    1         16             0        0.000000    0.000000    0.394790
    2          1             0        0.000000    3.686432   -3.158323
    3          1             0        0.000000   -3.686432   -3.158323
 ---------------------------------------------------------------------
 Rotational constants (GHZ):     21.1122785     18.4497103      9.8456987
 Standard basis: STO-3G (5D, 7F)
 There are     6 symmetry adapted basis functions of A1  symmetry.
 There are     0 symmetry adapted basis functions of A2  symmetry.
 There are     2 symmetry adapted basis functions of B1  symmetry.
 There are     3 symmetry adapted basis functions of B2  symmetry.
 Integral buffers will be    262144 words long.
 Raffenetti 2 integral format.
 Two-electron integral symmetry is turned on.
    11 basis functions,    33 primitive gaussians,    11 cartesian basis functions
     9 alpha electrons        9 beta electrons
       nuclear repulsion energy         3.3791311770 Hartrees.
 NAtoms=    3 NActive=    3 NUniq=    2 SFac= 2.76D+00 NAtFMM=   60 Big=F
 One-electron integrals computed using PRISM.
 NBasis=    11 RedAO= T  NBF=     6     0     2     3
 NBsUse=    11 1.00D-06 NBFU=     6     0     2     3
 SCF N**3 symmetry information disabled.
 Initial guess read from the read-write file:
 Initial guess orbital symmetries:
 Alpha Orbitals:
       Occupied  (A1) (A1) (A1) (B2) (B1) (A1) (B1) (B2) (A1)
       Virtual   (B2) (A1)
 Beta  Orbitals:
       Occupied  (A1) (A1) (A1) (B2) (B1) (A1) (B1) (B2) (A1)
       Virtual   (B2) (A1)
 <S**2> of initial guess= 0.0000
 Harris functional with IExCor=  205 diagonalized for initial guess.
 ExpMin= 1.69D-01 ExpMax= 5.33D+02 ExpMxC= 5.33D+02 IAcc=1 IRadAn=         1 AccDes= 1.00D-06
 HarFok:  IExCor= 205 AccDes= 1.00D-06 IRadAn=         1 IDoV=1
 ScaDFX=  1.000000  1.000000  1.000000  1.000000
 Requested convergence on RMS density matrix=1.00D-08 within 128 cycles.
 Requested convergence on MAX density matrix=1.00D-06.
 Requested convergence on             energy=1.00D-06.
 No special actions if energy rises.
 Keep R1 and R2 integrals in memory in canonical form, NReq=      423999.
 SCF Done:  E(UHF) =  -393.614420096     A.U. after    5 cycles
             Convg  =    0.2970D-10             -V/T =  2.0074
             S**2   =   0.0000
 Annihilation of the first spin contaminant:
 S**2 before annihilation     0.0000,   after     0.0000
 Variable Step   Value    
 -------- ---- -----------
     1       9    9.467528
 ------------------------------------------------------------------------
                         Z-MATRIX (ANGSTROMS AND DEGREES)
 CD Cent Atom  N1     Length/X     N2    Alpha/Y     N3     Beta/Z      J
 ------------------------------------------------------------------------
   1   1  S 
   2   2  H     1   5.010000(  1)
   3   3  H     1   5.010000(  2)   2   92.110(  3)
 ------------------------------------------------------------------------
                         Z-Matrix orientation:                         
 ---------------------------------------------------------------------
 Center     Atomic     Atomic              Coordinates (Angstroms)
 Number     Number      Type              X           Y           Z
 ---------------------------------------------------------------------
    1         16             0        0.000000    0.000000    0.000000
    2          1             0        0.000000    0.000000    5.010000
    3          1             0        5.006603    0.000000   -0.184459
 ---------------------------------------------------------------------
                    Distance matrix (angstroms):
                    1          2          3
     1  S    0.000000
     2  H    5.010000   0.000000
     3  H    5.010000   7.214463   0.000000
                           Interatomic angles:
       H2-S1-H3= 92.11  
 Stoichiometry    H2S
 Framework group  C2V[C2(S),SGV(H2)]
 Deg. of freedom     2
 Full point group                 C2V     NOp   4
 Largest Abelian subgroup         C2V     NOp   4
 Largest concise Abelian subgroup C2      NOp   2
                         Standard orientation:                         
 ---------------------------------------------------------------------
 Center     Atomic     Atomic              Coordinates (Angstroms)
 Number     Number      Type              X           Y           Z
 ---------------------------------------------------------------------
    1         16             0        0.000000    0.000000    0.386309
    2          1             0        0.000000    3.607232   -3.090469
    3          1             0        0.000000   -3.607232   -3.090469
 ---------------------------------------------------------------------
 Rotational constants (GHZ):     22.0495421     19.2687713     10.2827911
 Standard basis: STO-3G (5D, 7F)
 There are     6 symmetry adapted basis functions of A1  symmetry.
 There are     0 symmetry adapted basis functions of A2  symmetry.
 There are     2 symmetry adapted basis functions of B1  symmetry.
 There are     3 symmetry adapted basis functions of B2  symmetry.
 Integral buffers will be    262144 words long.
 Raffenetti 2 integral format.
 Two-electron integral symmetry is turned on.
    11 basis functions,    33 primitive gaussians,    11 cartesian basis functions
     9 alpha electrons        9 beta electrons
       nuclear repulsion energy         3.4533236779 Hartrees.
 NAtoms=    3 NActive=    3 NUniq=    2 SFac= 2.76D+00 NAtFMM=   60 Big=F
 One-electron integrals computed using PRISM.
 NBasis=    11 RedAO= T  NBF=     6     0     2     3
 NBsUse=    11 1.00D-06 NBFU=     6     0     2     3
 SCF N**3 symmetry information disabled.
 Initial guess read from the read-write file:
 Initial guess orbital symmetries:
 Alpha Orbitals:
       Occupied  (A1) (A1) (A1) (B2) (B1) (A1) (B1) (B2) (A1)
       Virtual   (B2) (A1)
 Beta  Orbitals:
       Occupied  (A1) (A1) (A1) (B2) (B1) (A1) (B1) (B2) (A1)
       Virtual   (B2) (A1)
 <S**2> of initial guess= 0.0000
 Harris functional with IExCor=  205 diagonalized for initial guess.
 ExpMin= 1.69D-01 ExpMax= 5.33D+02 ExpMxC= 5.33D+02 IAcc=1 IRadAn=         1 AccDes= 1.00D-06
 HarFok:  IExCor= 205 AccDes= 1.00D-06 IRadAn=         1 IDoV=1
 ScaDFX=  1.000000  1.000000  1.000000  1.000000
 Requested convergence on RMS density matrix=1.00D-08 within 128 cycles.
 Requested convergence on MAX density matrix=1.00D-06.
 Requested convergence on             energy=1.00D-06.
 No special actions if energy rises.
 Keep R1 and R2 integrals in memory in canonical form, NReq=      423999.
 SCF Done:  E(UHF) =  -393.615208785     A.U. after    5 cycles
             Convg  =    0.6418D-10             -V/T =  2.0074
             S**2   =   0.0000
 Annihilation of the first spin contaminant:
 S**2 before annihilation     0.0000,   after     0.0000
 Variable Step   Value    
 -------- ---- -----------
     1      10    9.259658
 ------------------------------------------------------------------------
                         Z-MATRIX (ANGSTROMS AND DEGREES)
 CD Cent Atom  N1     Length/X     N2    Alpha/Y     N3     Beta/Z      J
 ------------------------------------------------------------------------
   1   1  S 
   2   2  H     1   4.900000(  1)
   3   3  H     1   4.900000(  2)   2   92.110(  3)
 ------------------------------------------------------------------------
                         Z-Matrix orientation:                         
 ---------------------------------------------------------------------
 Center     Atomic     Atomic              Coordinates (Angstroms)
 Number     Number      Type              X           Y           Z
 ---------------------------------------------------------------------
    1         16             0        0.000000    0.000000    0.000000
    2          1             0        0.000000    0.000000    4.900000
    3          1             0        4.896678    0.000000   -0.180409
 ---------------------------------------------------------------------
                    Distance matrix (angstroms):
                    1          2          3
     1  S    0.000000
     2  H    4.900000   0.000000
     3  H    4.900000   7.056062   0.000000
                           Interatomic angles:
       H2-S1-H3= 92.11  
 Stoichiometry    H2S
 Framework group  C2V[C2(S),SGV(H2)]
 Deg. of freedom     2
 Full point group                 C2V     NOp   4
 Largest Abelian subgroup         C2V     NOp   4
 Largest concise Abelian subgroup C2      NOp   2
                         Standard orientation:                         
 ---------------------------------------------------------------------
 Center     Atomic     Atomic              Coordinates (Angstroms)
 Number     Number      Type              X           Y           Z
 ---------------------------------------------------------------------
    1         16             0        0.000000    0.000000    0.377827
    2          1             0        0.000000    3.528031   -3.022614
    3          1             0        0.000000   -3.528031   -3.022614
 ---------------------------------------------------------------------
 Rotational constants (GHZ):     23.0506336     20.1436104     10.7496495
 Standard basis: STO-3G (5D, 7F)
 There are     6 symmetry adapted basis functions of A1  symmetry.
 There are     0 symmetry adapted basis functions of A2  symmetry.
 There are     2 symmetry adapted basis functions of B1  symmetry.
 There are     3 symmetry adapted basis functions of B2  symmetry.
 Integral buffers will be    262144 words long.
 Raffenetti 2 integral format.
 Two-electron integral symmetry is turned on.
    11 basis functions,    33 primitive gaussians,    11 cartesian basis functions
     9 alpha electrons        9 beta electrons
       nuclear repulsion energy         3.5308472706 Hartrees.
 NAtoms=    3 NActive=    3 NUniq=    2 SFac= 2.76D+00 NAtFMM=   60 Big=F
 One-electron integrals computed using PRISM.
 NBasis=    11 RedAO= T  NBF=     6     0     2     3
 NBsUse=    11 1.00D-06 NBFU=     6     0     2     3
 SCF N**3 symmetry information disabled.
 Initial guess read from the read-write file:
 Initial guess orbital symmetries:
 Alpha Orbitals:
       Occupied  (A1) (A1) (A1) (B2) (B1) (A1) (B1) (B2) (A1)
       Virtual   (B2) (A1)
 Beta  Orbitals:
       Occupied  (A1) (A1) (A1) (B2) (B1) (A1) (B1) (B2) (A1)
       Virtual   (B2) (A1)
 <S**2> of initial guess= 0.0000
 Harris functional with IExCor=  205 diagonalized for initial guess.
 ExpMin= 1.69D-01 ExpMax= 5.33D+02 ExpMxC= 5.33D+02 IAcc=1 IRadAn=         1 AccDes= 1.00D-06
 HarFok:  IExCor= 205 AccDes= 1.00D-06 IRadAn=         1 IDoV=1
 ScaDFX=  1.000000  1.000000  1.000000  1.000000
 Requested convergence on RMS density matrix=1.00D-08 within 128 cycles.
 Requested convergence on MAX density matrix=1.00D-06.
 Requested convergence on             energy=1.00D-06.
 No special actions if energy rises.
 Keep R1 and R2 integrals in memory in canonical form, NReq=      423999.
 SCF Done:  E(UHF) =  -393.616033503     A.U. after    5 cycles
             Convg  =    0.1428D-09             -V/T =  2.0074
             S**2   =   0.0000
 Annihilation of the first spin contaminant:
 S**2 before annihilation     0.0000,   after     0.0000
 Variable Step   Value    
 -------- ---- -----------
     1      11    9.051788
 ------------------------------------------------------------------------
                         Z-MATRIX (ANGSTROMS AND DEGREES)
 CD Cent Atom  N1     Length/X     N2    Alpha/Y     N3     Beta/Z      J
 ------------------------------------------------------------------------
   1   1  S 
   2   2  H     1   4.790000(  1)
   3   3  H     1   4.790000(  2)   2   92.110(  3)
 ------------------------------------------------------------------------
                         Z-Matrix orientation:                         
 ---------------------------------------------------------------------
 Center     Atomic     Atomic              Coordinates (Angstroms)
 Number     Number      Type              X           Y           Z
 ---------------------------------------------------------------------
    1         16             0        0.000000    0.000000    0.000000
    2          1             0        0.000000    0.000000    4.790000
    3          1             0        4.786752    0.000000   -0.176359
 ---------------------------------------------------------------------
                    Distance matrix (angstroms):
                    1          2          3
     1  S    0.000000
     2  H    4.790000   0.000000
     3  H    4.790000   6.897660   0.000000
                           Interatomic angles:
       H2-S1-H3= 92.11  
 Stoichiometry    H2S
 Framework group  C2V[C2(S),SGV(H2)]
 Deg. of freedom     2
 Full point group                 C2V     NOp   4
 Largest Abelian subgroup         C2V     NOp   4
 Largest concise Abelian subgroup C2      NOp   2
                         Standard orientation:                         
 ---------------------------------------------------------------------
 Center     Atomic     Atomic              Coordinates (Angstroms)
 Number     Number      Type              X           Y           Z
 ---------------------------------------------------------------------
    1         16             0        0.000000    0.000000    0.369345
    2          1             0        0.000000    3.448830   -2.954760
    3          1             0        0.000000   -3.448830   -2.954760
 ---------------------------------------------------------------------
 Rotational constants (GHZ):     24.1214828     21.0794098     11.2490394
 Standard basis: STO-3G (5D, 7F)
 There are     6 symmetry adapted basis functions of A1  symmetry.
 There are     0 symmetry adapted basis functions of A2  symmetry.
 There are     2 symmetry adapted basis functions of B1  symmetry.
 There are     3 symmetry adapted basis functions of B2  symmetry.
 Integral buffers will be    262144 words long.
 Raffenetti 2 integral format.
 Two-electron integral symmetry is turned on.
    11 basis functions,    33 primitive gaussians,    11 cartesian basis functions
     9 alpha electrons        9 beta electrons
       nuclear repulsion energy         3.6119314460 Hartrees.
 NAtoms=    3 NActive=    3 NUniq=    2 SFac= 2.76D+00 NAtFMM=   60 Big=F
 One-electron integrals computed using PRISM.
 NBasis=    11 RedAO= T  NBF=     6     0     2     3
 NBsUse=    11 1.00D-06 NBFU=     6     0     2     3
 SCF N**3 symmetry information disabled.
 Initial guess read from the read-write file:
 Initial guess orbital symmetries:
 Alpha Orbitals:
       Occupied  (A1) (A1) (A1) (B2) (B1) (A1) (B1) (B2) (A1)
       Virtual   (B2) (A1)
 Beta  Orbitals:
       Occupied  (A1) (A1) (A1) (B2) (B1) (A1) (B1) (B2) (A1)
       Virtual   (B2) (A1)
 <S**2> of initial guess= 0.0000
 Harris functional with IExCor=  205 diagonalized for initial guess.
 ExpMin= 1.69D-01 ExpMax= 5.33D+02 ExpMxC= 5.33D+02 IAcc=1 IRadAn=         1 AccDes= 1.00D-06
 HarFok:  IExCor= 205 AccDes= 1.00D-06 IRadAn=         1 IDoV=1
 ScaDFX=  1.000000  1.000000  1.000000  1.000000
 Requested convergence on RMS density matrix=1.00D-08 within 128 cycles.
 Requested convergence on MAX density matrix=1.00D-06.
 Requested convergence on             energy=1.00D-06.
 No special actions if energy rises.
 Keep R1 and R2 integrals in memory in canonical form, NReq=      423999.
 SCF Done:  E(UHF) =  -393.616897216     A.U. after    5 cycles
             Convg  =    0.3324D-09             -V/T =  2.0074
             S**2   =   0.0000
 Annihilation of the first spin contaminant:
 S**2 before annihilation     0.0000,   after     0.0000
 Variable Step   Value    
 -------- ---- -----------
     1      12    8.843918
 ------------------------------------------------------------------------
                         Z-MATRIX (ANGSTROMS AND DEGREES)
 CD Cent Atom  N1     Length/X     N2    Alpha/Y     N3     Beta/Z      J
 ------------------------------------------------------------------------
   1   1  S 
   2   2  H     1   4.680000(  1)
   3   3  H     1   4.680000(  2)   2   92.110(  3)
 ------------------------------------------------------------------------
                         Z-Matrix orientation:                         
 ---------------------------------------------------------------------
 Center     Atomic     Atomic              Coordinates (Angstroms)
 Number     Number      Type              X           Y           Z
 ---------------------------------------------------------------------
    1         16             0        0.000000    0.000000    0.000000
    2          1             0        0.000000    0.000000    4.680000
    3          1             0        4.676827    0.000000   -0.172309
 ---------------------------------------------------------------------
                    Distance matrix (angstroms):
                    1          2          3
     1  S    0.000000
     2  H    4.680000   0.000000
     3  H    4.680000   6.739259   0.000000
                           Interatomic angles:
       H2-S1-H3= 92.11  
 Stoichiometry    H2S
 Framework group  C2V[C2(S),SGV(H2)]
 Deg. of freedom     2
 Full point group                 C2V     NOp   4
 Largest Abelian subgroup         C2V     NOp   4
 Largest concise Abelian subgroup C2      NOp   2
                         Standard orientation:                         
 ---------------------------------------------------------------------
 Center     Atomic     Atomic              Coordinates (Angstroms)
 Number     Number      Type              X           Y           Z
 ---------------------------------------------------------------------
    1         16             0        0.000000    0.000000    0.360863
    2          1             0        0.000000    3.369629   -2.886905
    3          1             0        0.000000   -3.369629   -2.886905
 ---------------------------------------------------------------------
 Rotational constants (GHZ):     25.2687246     22.0819675     11.7840549
 Standard basis: STO-3G (5D, 7F)
 There are     6 symmetry adapted basis functions of A1  symmetry.
 There are     0 symmetry adapted basis functions of A2  symmetry.
 There are     2 symmetry adapted basis functions of B1  symmetry.
 There are     3 symmetry adapted basis functions of B2  symmetry.
 Integral buffers will be    262144 words long.
 Raffenetti 2 integral format.
 Two-electron integral symmetry is turned on.
    11 basis functions,    33 primitive gaussians,    11 cartesian basis functions
     9 alpha electrons        9 beta electrons
       nuclear repulsion energy         3.6968272705 Hartrees.
 NAtoms=    3 NActive=    3 NUniq=    2 SFac= 2.76D+00 NAtFMM=   60 Big=F
 One-electron integrals computed using PRISM.
 NBasis=    11 RedAO= T  NBF=     6     0     2     3
 NBsUse=    11 1.00D-06 NBFU=     6     0     2     3
 SCF N**3 symmetry information disabled.
 Initial guess read from the read-write file:
 Initial guess orbital symmetries:
 Alpha Orbitals:
       Occupied  (A1) (A1) (A1) (B2) (B1) (A1) (B1) (B2) (A1)
       Virtual   (B2) (A1)
 Beta  Orbitals:
       Occupied  (A1) (A1) (A1) (B2) (B1) (A1) (B1) (B2) (A1)
       Virtual   (B2) (A1)
 <S**2> of initial guess= 0.0000
 Harris functional with IExCor=  205 diagonalized for initial guess.
 ExpMin= 1.69D-01 ExpMax= 5.33D+02 ExpMxC= 5.33D+02 IAcc=1 IRadAn=         1 AccDes= 1.00D-06
 HarFok:  IExCor= 205 AccDes= 1.00D-06 IRadAn=         1 IDoV=1
 ScaDFX=  1.000000  1.000000  1.000000  1.000000
 Requested convergence on RMS density matrix=1.00D-08 within 128 cycles.
 Requested convergence on MAX density matrix=1.00D-06.
 Requested convergence on             energy=1.00D-06.
 No special actions if energy rises.
 Keep R1 and R2 integrals in memory in canonical form, NReq=      423999.
 SCF Done:  E(UHF) =  -393.617803512     A.U. after    5 cycles
             Convg  =    0.8157D-09             -V/T =  2.0074
             S**2   =   0.0000
 Annihilation of the first spin contaminant:
 S**2 before annihilation     0.0000,   after     0.0000
 Variable Step   Value    
 -------- ---- -----------
     1      13    8.636048
 ------------------------------------------------------------------------
                         Z-MATRIX (ANGSTROMS AND DEGREES)
 CD Cent Atom  N1     Length/X     N2    Alpha/Y     N3     Beta/Z      J
 ------------------------------------------------------------------------
   1   1  S 
   2   2  H     1   4.570000(  1)
   3   3  H     1   4.570000(  2)   2   92.110(  3)
 ------------------------------------------------------------------------
                         Z-Matrix orientation:                         
 ---------------------------------------------------------------------
 Center     Atomic     Atomic              Coordinates (Angstroms)
 Number     Number      Type              X           Y           Z
 ---------------------------------------------------------------------
    1         16             0        0.000000    0.000000    0.000000
    2          1             0        0.000000    0.000000    4.570000
    3          1             0        4.566901    0.000000   -0.168259
 ---------------------------------------------------------------------
                    Distance matrix (angstroms):
                    1          2          3
     1  S    0.000000
     2  H    4.570000   0.000000
     3  H    4.570000   6.580858   0.000000
                           Interatomic angles:
       H2-S1-H3= 92.11  
 Stoichiometry    H2S
 Framework group  C2V[C2(S),SGV(H2)]
 Deg. of freedom     2
 Full point group                 C2V     NOp   4
 Largest Abelian subgroup         C2V     NOp   4
 Largest concise Abelian subgroup C2      NOp   2
                         Standard orientation:                         
 ---------------------------------------------------------------------
 Center     Atomic     Atomic              Coordinates (Angstroms)
 Number     Number      Type              X           Y           Z
 ---------------------------------------------------------------------
    1         16             0        0.000000    0.000000    0.352381
    2          1             0        0.000000    3.290429   -2.819050
    3          1             0        0.000000   -3.290429   -2.819050
 ---------------------------------------------------------------------
 Rotational constants (GHZ):     26.4998019     23.1577880     12.3581671
 Standard basis: STO-3G (5D, 7F)
 There are     6 symmetry adapted basis functions of A1  symmetry.
 There are     0 symmetry adapted basis functions of A2  symmetry.
 There are     2 symmetry adapted basis functions of B1  symmetry.
 There are     3 symmetry adapted basis functions of B2  symmetry.
 Integral buffers will be    262144 words long.
 Raffenetti 2 integral format.
 Two-electron integral symmetry is turned on.
    11 basis functions,    33 primitive gaussians,    11 cartesian basis functions
     9 alpha electrons        9 beta electrons
       nuclear repulsion energy         3.7858099838 Hartrees.
 NAtoms=    3 NActive=    3 NUniq=    2 SFac= 2.76D+00 NAtFMM=   60 Big=F
 One-electron integrals computed using PRISM.
 NBasis=    11 RedAO= T  NBF=     6     0     2     3
 NBsUse=    11 1.00D-06 NBFU=     6     0     2     3
 SCF N**3 symmetry information disabled.
 Initial guess read from the read-write file:
 Initial guess orbital symmetries:
 Alpha Orbitals:
       Occupied  (A1) (A1) (A1) (B2) (B1) (A1) (B1) (B2) (A1)
       Virtual   (B2) (A1)
 Beta  Orbitals:
       Occupied  (A1) (A1) (A1) (B2) (B1) (A1) (B1) (B2) (A1)
       Virtual   (B2) (A1)
 <S**2> of initial guess= 0.0000
 Harris functional with IExCor=  205 diagonalized for initial guess.
 ExpMin= 1.69D-01 ExpMax= 5.33D+02 ExpMxC= 5.33D+02 IAcc=1 IRadAn=         1 AccDes= 1.00D-06
 HarFok:  IExCor= 205 AccDes= 1.00D-06 IRadAn=         1 IDoV=1
 ScaDFX=  1.000000  1.000000  1.000000  1.000000
 Requested convergence on RMS density matrix=1.00D-08 within 128 cycles.
 Requested convergence on MAX density matrix=1.00D-06.
 Requested convergence on             energy=1.00D-06.
 No special actions if energy rises.
 Keep R1 and R2 integrals in memory in canonical form, NReq=      423999.
 SCF Done:  E(UHF) =  -393.618756912     A.U. after    5 cycles
             Convg  =    0.2100D-08             -V/T =  2.0074
             S**2   =   0.0000
 Annihilation of the first spin contaminant:
 S**2 before annihilation     0.0000,   after     0.0000
 Variable Step   Value    
 -------- ---- -----------
     1      14    8.428179
 ------------------------------------------------------------------------
                         Z-MATRIX (ANGSTROMS AND DEGREES)
 CD Cent Atom  N1     Length/X     N2    Alpha/Y     N3     Beta/Z      J
 ------------------------------------------------------------------------
   1   1  S 
   2   2  H     1   4.460000(  1)
   3   3  H     1   4.460000(  2)   2   92.110(  3)
 ------------------------------------------------------------------------
                         Z-Matrix orientation:                         
 ---------------------------------------------------------------------
 Center     Atomic     Atomic              Coordinates (Angstroms)
 Number     Number      Type              X           Y           Z
 ---------------------------------------------------------------------
    1         16             0        0.000000    0.000000    0.000000
    2          1             0        0.000000    0.000000    4.460000
    3          1             0        4.456976    0.000000   -0.164209
 ---------------------------------------------------------------------
                    Distance matrix (angstroms):
                    1          2          3
     1  S    0.000000
     2  H    4.460000   0.000000
     3  H    4.460000   6.422456   0.000000
                           Interatomic angles:
       H2-S1-H3= 92.11  
 Stoichiometry    H2S
 Framework group  C2V[C2(S),SGV(H2)]
 Deg. of freedom     2
 Full point group                 C2V     NOp   4
 Largest Abelian subgroup         C2V     NOp   4
 Largest concise Abelian subgroup C2      NOp   2
                         Standard orientation:                         
 ---------------------------------------------------------------------
 Center     Atomic     Atomic              Coordinates (Angstroms)
 Number     Number      Type              X           Y           Z
 ---------------------------------------------------------------------
    1         16             0        0.000000    0.000000    0.343899
    2          1             0        0.000000    3.211228   -2.751196
    3          1             0        0.000000   -3.211228   -2.751196
 ---------------------------------------------------------------------
 Rotational constants (GHZ):     27.8230868     24.3141872     12.9752802
 Standard basis: STO-3G (5D, 7F)
 There are     6 symmetry adapted basis functions of A1  symmetry.
 There are     0 symmetry adapted basis functions of A2  symmetry.
 There are     2 symmetry adapted basis functions of B1  symmetry.
 There are     3 symmetry adapted basis functions of B2  symmetry.
 Integral buffers will be    262144 words long.
 Raffenetti 2 integral format.
 Two-electron integral symmetry is turned on.
    11 basis functions,    33 primitive gaussians,    11 cartesian basis functions
     9 alpha electrons        9 beta electrons
       nuclear repulsion energy         3.8791819790 Hartrees.
 NAtoms=    3 NActive=    3 NUniq=    2 SFac= 2.76D+00 NAtFMM=   60 Big=F
 One-electron integrals computed using PRISM.
 NBasis=    11 RedAO= T  NBF=     6     0     2     3
 NBsUse=    11 1.00D-06 NBFU=     6     0     2     3
 SCF N**3 symmetry information disabled.
 Initial guess read from the read-write file:
 Initial guess orbital symmetries:
 Alpha Orbitals:
       Occupied  (A1) (A1) (A1) (B2) (B1) (A1) (B1) (B2) (A1)
       Virtual   (B2) (A1)
 Beta  Orbitals:
       Occupied  (A1) (A1) (A1) (B2) (B1) (A1) (B1) (B2) (A1)
       Virtual   (B2) (A1)
 <S**2> of initial guess= 0.0000
 Harris functional with IExCor=  205 diagonalized for initial guess.
 ExpMin= 1.69D-01 ExpMax= 5.33D+02 ExpMxC= 5.33D+02 IAcc=1 IRadAn=         1 AccDes= 1.00D-06
 HarFok:  IExCor= 205 AccDes= 1.00D-06 IRadAn=         1 IDoV=1
 ScaDFX=  1.000000  1.000000  1.000000  1.000000
 Requested convergence on RMS density matrix=1.00D-08 within 128 cycles.
 Requested convergence on MAX density matrix=1.00D-06.
 Requested convergence on             energy=1.00D-06.
 No special actions if energy rises.
 Keep R1 and R2 integrals in memory in canonical form, NReq=      423999.
 SCF Done:  E(UHF) =  -393.619763354     A.U. after    5 cycles
             Convg  =    0.5588D-08             -V/T =  2.0075
             S**2   =   0.0000
 Annihilation of the first spin contaminant:
 S**2 before annihilation     0.0000,   after     0.0000
 Variable Step   Value    
 -------- ---- -----------
     1      15    8.220309
 ------------------------------------------------------------------------
                         Z-MATRIX (ANGSTROMS AND DEGREES)
 CD Cent Atom  N1     Length/X     N2    Alpha/Y     N3     Beta/Z      J
 ------------------------------------------------------------------------
   1   1  S 
   2   2  H     1   4.350000(  1)
   3   3  H     1   4.350000(  2)   2   92.110(  3)
 ------------------------------------------------------------------------
                         Z-Matrix orientation:                         
 ---------------------------------------------------------------------
 Center     Atomic     Atomic              Coordinates (Angstroms)
 Number     Number      Type              X           Y           Z
 ---------------------------------------------------------------------
    1         16             0        0.000000    0.000000    0.000000
    2          1             0        0.000000    0.000000    4.350000
    3          1             0        4.347051    0.000000   -0.160159
 ---------------------------------------------------------------------
                    Distance matrix (angstroms):
                    1          2          3
     1  S    0.000000
     2  H    4.350000   0.000000
     3  H    4.350000   6.264055   0.000000
                           Interatomic angles:
       H2-S1-H3= 92.11  
 Stoichiometry    H2S
 Framework group  C2V[C2(S),SGV(H2)]
 Deg. of freedom     2
 Full point group                 C2V     NOp   4
 Largest Abelian subgroup         C2V     NOp   4
 Largest concise Abelian subgroup C2      NOp   2
                         Standard orientation:                         
 ---------------------------------------------------------------------
 Center     Atomic     Atomic              Coordinates (Angstroms)
 Number     Number      Type              X           Y           Z
 ---------------------------------------------------------------------
    1         16             0        0.000000    0.000000    0.335418
[...]
 Standard basis: STO-3G (5D, 7F)
 There are     6 symmetry adapted basis functions of A1  symmetry.
 There are     0 symmetry adapted basis functions of A2  symmetry.
 There are     2 symmetry adapted basis functions of B1  symmetry.
 There are     3 symmetry adapted basis functions of B2  symmetry.
 Integral buffers will be    262144 words long.
 Raffenetti 2 integral format.
 Two-electron integral symmetry is turned on.
    11 basis functions,    33 primitive gaussians,    11 cartesian basis functions
     9 alpha electrons        9 beta electrons
       nuclear repulsion energy        20.8447609954 Hartrees.



 Warning!  S  atom    1 may be hypervalent but has no d functions.



 NAtoms=    3 NActive=    3 NUniq=    2 SFac= 2.76D+00 NAtFMM=   60 Big=F
 One-electron integrals computed using PRISM.
 NBasis=    11 RedAO= T  NBF=     6     0     2     3
 NBsUse=    11 1.00D-06 NBFU=     6     0     2     3
 SCF N**3 symmetry information disabled.
 Initial guess read from the read-write file:
 Initial guess orbital symmetries:
 Alpha Orbitals:
       Occupied  (A1) (A1) (B2) (A1) (B1) (A1) (B2) (A1) (B1)
       Virtual   (B2) (A1)
 Beta  Orbitals:
       Occupied  (A1) (A1) (B2) (A1) (B1) (A1) (B2) (A1) (B1)
       Virtual   (B2) (A1)
 <S**2> of initial guess= 0.0000
 Harris functional with IExCor=  205 diagonalized for initial guess.
 ExpMin= 1.69D-01 ExpMax= 5.33D+02 ExpMxC= 5.33D+02 IAcc=1 IRadAn=         1 AccDes= 1.00D-06
 HarFok:  IExCor= 205 AccDes= 1.00D-06 IRadAn=         1 IDoV=1
 ScaDFX=  1.000000  1.000000  1.000000  1.000000
 Requested convergence on RMS density matrix=1.00D-08 within 128 cycles.
 Requested convergence on MAX density matrix=1.00D-06.
 Requested convergence on             energy=1.00D-06.
 No special actions if energy rises.
 Keep R1 and R2 integrals in memory in canonical form, NReq=      423999.
 SCF Done:  E(UHF) =  -393.473435959     A.U. after    8 cycles
             Convg  =    0.2216D-09             -V/T =  2.0049
             S**2   =   0.0000
 Annihilation of the first spin contaminant:
 S**2 before annihilation     0.0000,   after     0.0000
 Variable Step   Value    
 -------- ---- -----------
     1      48    1.360603
 ------------------------------------------------------------------------
                         Z-MATRIX (ANGSTROMS AND DEGREES)
 CD Cent Atom  N1     Length/X     N2    Alpha/Y     N3     Beta/Z      J
 ------------------------------------------------------------------------
   1   1  S 
   2   2  H     1   0.720000(  1)
   3   3  H     1   0.720000(  2)   2   92.110(  3)
 ------------------------------------------------------------------------
                         Z-Matrix orientation:                         
 ---------------------------------------------------------------------
 Center     Atomic     Atomic              Coordinates (Angstroms)
 Number     Number      Type              X           Y           Z
 ---------------------------------------------------------------------
    1         16             0        0.000000    0.000000    0.000000
    2          1             0        0.000000    0.000000    0.720000
    3          1             0        0.719512    0.000000   -0.026509
 ---------------------------------------------------------------------
                    Distance matrix (angstroms):
                    1          2          3
     1  S    0.000000
     2  H    0.720000   0.000000
     3  H    0.720000   1.036809   0.000000
                           Interatomic angles:
       H2-S1-H3= 92.11  
 Stoichiometry    H2S
 Framework group  C2V[C2(S),SGV(H2)]
 Deg. of freedom     2
 Full point group                 C2V     NOp   4
 Largest Abelian subgroup         C2V     NOp   4
 Largest concise Abelian subgroup C2      NOp   2
                         Standard orientation:                         
 ---------------------------------------------------------------------
 Center     Atomic     Atomic              Coordinates (Angstroms)
 Number     Number      Type              X           Y           Z
 ---------------------------------------------------------------------
    1         16             0        0.000000    0.000000    0.055517
    2          1             0        0.000000    0.518405   -0.444139
    3          1             0        0.000000   -0.518405   -0.444139
 ---------------------------------------------------------------------
 Rotational constants (GHZ):   1067.6036123    932.9631283    497.8763196
 Standard basis: STO-3G (5D, 7F)
 There are     6 symmetry adapted basis functions of A1  symmetry.
 There are     0 symmetry adapted basis functions of A2  symmetry.
 There are     2 symmetry adapted basis functions of B1  symmetry.
 There are     3 symmetry adapted basis functions of B2  symmetry.
 Integral buffers will be    262144 words long.
 Raffenetti 2 integral format.
 Two-electron integral symmetry is turned on.
    11 basis functions,    33 primitive gaussians,    11 cartesian basis functions
     9 alpha electrons        9 beta electrons
       nuclear repulsion energy        24.0293772586 Hartrees.



 Warning!  S  atom    1 may be hypervalent but has no d functions.



 NAtoms=    3 NActive=    3 NUniq=    2 SFac= 2.76D+00 NAtFMM=   60 Big=F
 One-electron integrals computed using PRISM.
 NBasis=    11 RedAO= T  NBF=     6     0     2     3
 NBsUse=    11 1.00D-06 NBFU=     6     0     2     3
 SCF N**3 symmetry information disabled.
 Initial guess read from the read-write file:
 Initial guess orbital symmetries:
 Alpha Orbitals:
       Occupied  (A1) (A1) (B2) (A1) (B1) (A1) (B2) (A1) (B1)
       Virtual   (B2) (A1)
 Beta  Orbitals:
       Occupied  (A1) (A1) (B2) (A1) (B1) (A1) (B2) (A1) (B1)
       Virtual   (B2) (A1)
 <S**2> of initial guess= 0.0000
 Harris functional with IExCor=  205 diagonalized for initial guess.
 ExpMin= 1.69D-01 ExpMax= 5.33D+02 ExpMxC= 5.33D+02 IAcc=1 IRadAn=         1 AccDes= 1.00D-06
 HarFok:  IExCor= 205 AccDes= 1.00D-06 IRadAn=         1 IDoV=1
 ScaDFX=  1.000000  1.000000  1.000000  1.000000
 Requested convergence on RMS density matrix=1.00D-08 within 128 cycles.
 Requested convergence on MAX density matrix=1.00D-06.
 Requested convergence on             energy=1.00D-06.
 No special actions if energy rises.
 Keep R1 and R2 integrals in memory in canonical form, NReq=      423999.
 SCF Done:  E(UHF) =  -392.742992782     A.U. after    7 cycles
             Convg  =    0.3512D-08             -V/T =  2.0001
             S**2   =   0.0000
 Annihilation of the first spin contaminant:
 S**2 before annihilation     0.0000,   after     0.0000
 Variable Step   Value    
 -------- ---- -----------
     1      49    1.152733
 ------------------------------------------------------------------------
                         Z-MATRIX (ANGSTROMS AND DEGREES)
 CD Cent Atom  N1     Length/X     N2    Alpha/Y     N3     Beta/Z      J
 ------------------------------------------------------------------------
   1   1  S 
   2   2  H     1   0.610000(  1)
   3   3  H     1   0.610000(  2)   2   92.110(  3)
 ------------------------------------------------------------------------
                         Z-Matrix orientation:                         
 ---------------------------------------------------------------------
 Center     Atomic     Atomic              Coordinates (Angstroms)
 Number     Number      Type              X           Y           Z
 ---------------------------------------------------------------------
    1         16             0        0.000000    0.000000    0.000000
    2          1             0        0.000000    0.000000    0.610000
    3          1             0        0.609586    0.000000   -0.022459
 ---------------------------------------------------------------------
                    Distance matrix (angstroms):
                    1          2          3
     1  S    0.000000
     2  H    0.610000   0.000000
     3  H    0.610000   0.878408   0.000000
                           Interatomic angles:
       H2-S1-H3= 92.11  
 Stoichiometry    H2S
 Framework group  C2V[C2(S),SGV(H2)]
 Deg. of freedom     2
 Full point group                 C2V     NOp   4
 Largest Abelian subgroup         C2V     NOp   4
 Largest concise Abelian subgroup C2      NOp   2
                         Standard orientation:                         
 ---------------------------------------------------------------------
 Center     Atomic     Atomic              Coordinates (Angstroms)
 Number     Number      Type              X           Y           Z
 ---------------------------------------------------------------------
    1         16             0        0.000000    0.000000    0.047036
    2          1             0        0.000000    0.439204   -0.376285
    3          1             0        0.000000   -0.439204   -0.376285
 ---------------------------------------------------------------------
 Rotational constants (GHZ):   1487.3574647   1299.7798595    693.6282829
 Standard basis: STO-3G (5D, 7F)
 There are     6 symmetry adapted basis functions of A1  symmetry.
 There are     0 symmetry adapted basis functions of A2  symmetry.
 There are     2 symmetry adapted basis functions of B1  symmetry.
 There are     3 symmetry adapted basis functions of B2  symmetry.
 Integral buffers will be    262144 words long.
 Raffenetti 2 integral format.
 Two-electron integral symmetry is turned on.
    11 basis functions,    33 primitive gaussians,    11 cartesian basis functions
     9 alpha electrons        9 beta electrons
       nuclear repulsion energy        28.3625436494 Hartrees.



 Warning!  S  atom    1 may be hypervalent but has no d functions.



 NAtoms=    3 NActive=    3 NUniq=    2 SFac= 2.76D+00 NAtFMM=   60 Big=F
 One-electron integrals computed using PRISM.
 NBasis=    11 RedAO= T  NBF=     6     0     2     3
 NBsUse=    11 1.00D-06 NBFU=     6     0     2     3
 SCF N**3 symmetry information disabled.
 Initial guess read from the read-write file:
 Initial guess orbital symmetries:
 Alpha Orbitals:
       Occupied  (A1) (A1) (B2) (A1) (B1) (A1) (B2) (A1) (B1)
       Virtual   (B2) (A1)
 Beta  Orbitals:
       Occupied  (A1) (A1) (B2) (A1) (B1) (A1) (B2) (A1) (B1)
       Virtual   (B2) (A1)
 <S**2> of initial guess= 0.0000
 Harris functional with IExCor=  205 diagonalized for initial guess.
 ExpMin= 1.69D-01 ExpMax= 5.33D+02 ExpMxC= 5.33D+02 IAcc=1 IRadAn=         1 AccDes= 1.00D-06
 HarFok:  IExCor= 205 AccDes= 1.00D-06 IRadAn=         1 IDoV=1
 ScaDFX=  1.000000  1.000000  1.000000  1.000000
 Requested convergence on RMS density matrix=1.00D-08 within 128 cycles.
 Requested convergence on MAX density matrix=1.00D-06.
 Requested convergence on             energy=1.00D-06.
 No special actions if energy rises.
 Keep R1 and R2 integrals in memory in canonical form, NReq=      423999.
 SCF Done:  E(UHF) =  -391.520565850     A.U. after    7 cycles
             Convg  =    0.1256D-08             -V/T =  1.9931
             S**2   =   0.0000
 Annihilation of the first spin contaminant:
 S**2 before annihilation     0.0000,   after     0.0000
 Variable Step   Value    
 -------- ---- -----------
     1      50    0.944863
 ------------------------------------------------------------------------
                         Z-MATRIX (ANGSTROMS AND DEGREES)
 CD Cent Atom  N1     Length/X     N2    Alpha/Y     N3     Beta/Z      J
 ------------------------------------------------------------------------
   1   1  S 
   2   2  H     1   0.500000(  1)
   3   3  H     1   0.500000(  2)   2   92.110(  3)
 ------------------------------------------------------------------------
                         Z-Matrix orientation:                         
 ---------------------------------------------------------------------
 Center     Atomic     Atomic              Coordinates (Angstroms)
 Number     Number      Type              X           Y           Z
 ---------------------------------------------------------------------
    1         16             0        0.000000    0.000000    0.000000
    2          1             0        0.000000    0.000000    0.500000
    3          1             0        0.499661    0.000000   -0.018409
 ---------------------------------------------------------------------
                    Distance matrix (angstroms):
                    1          2          3
     1  S    0.000000
     2  H    0.500000   0.000000
     3  H    0.500000   0.720006   0.000000
                           Interatomic angles:
       H2-S1-H3= 92.11  
 Stoichiometry    H2S
 Framework group  C2V[C2(S),SGV(H2)]
 Deg. of freedom     2
 Full point group                 C2V     NOp   4
 Largest Abelian subgroup         C2V     NOp   4
 Largest concise Abelian subgroup C2      NOp   2
                         Standard orientation:                         
 ---------------------------------------------------------------------
 Center     Atomic     Atomic              Coordinates (Angstroms)
 Number     Number      Type              X           Y           Z
 ---------------------------------------------------------------------
    1         16             0        0.000000    0.000000    0.038554
    2          1             0        0.000000    0.360003   -0.308430
    3          1             0        0.000000   -0.360003   -0.308430
 ---------------------------------------------------------------------
 Rotational constants (GHZ):   2213.7828505   1934.5923429   1032.3963363
 Standard basis: STO-3G (5D, 7F)
 There are     6 symmetry adapted basis functions of A1  symmetry.
 There are     0 symmetry adapted basis functions of A2  symmetry.
 There are     2 symmetry adapted basis functions of B1  symmetry.
 There are     3 symmetry adapted basis functions of B2  symmetry.
 Integral buffers will be    262144 words long.
 Raffenetti 2 integral format.
 Two-electron integral symmetry is turned on.
    11 basis functions,    33 primitive gaussians,    11 cartesian basis functions
     9 alpha electrons        9 beta electrons
       nuclear repulsion energy        34.6023032523 Hartrees.



 Warning!  S  atom    1 may be hypervalent but has no d functions.



 NAtoms=    3 NActive=    3 NUniq=    2 SFac= 2.76D+00 NAtFMM=   60 Big=F
 One-electron integrals computed using PRISM.
 NBasis=    11 RedAO= T  NBF=     6     0     2     3
 NBsUse=    11 1.00D-06 NBFU=     6     0     2     3
 SCF N**3 symmetry information disabled.
 Initial guess read from the read-write file:
 Initial guess orbital symmetries:
 Alpha Orbitals:
       Occupied  (A1) (A1) (B2) (A1) (B1) (A1) (B2) (A1) (B1)
       Virtual   (B2) (A1)
 Beta  Orbitals:
       Occupied  (A1) (A1) (B2) (A1) (B1) (A1) (B2) (A1) (B1)
       Virtual   (B2) (A1)
 <S**2> of initial guess= 0.0000
 Harris functional with IExCor=  205 diagonalized for initial guess.
 ExpMin= 1.69D-01 ExpMax= 5.33D+02 ExpMxC= 5.33D+02 IAcc=1 IRadAn=         1 AccDes= 1.00D-06
 HarFok:  IExCor= 205 AccDes= 1.00D-06 IRadAn=         1 IDoV=1
 ScaDFX=  1.000000  1.000000  1.000000  1.000000
 Requested convergence on RMS density matrix=1.00D-08 within 128 cycles.
 Requested convergence on MAX density matrix=1.00D-06.
 Requested convergence on             energy=1.00D-06.
 No special actions if energy rises.
 Keep R1 and R2 integrals in memory in canonical form, NReq=      423999.
 SCF Done:  E(UHF) =  -389.418065167     A.U. after    8 cycles
             Convg  =    0.7512D-09             -V/T =  1.9847
             S**2   =   0.0000
 Annihilation of the first spin contaminant:
 S**2 before annihilation     0.0000,   after     0.0000
 Scan completed.

 Summary of the potential surface scan:
   N       r          SCF    
 ----  ---------  -----------
    1     6.0000   -393.60916
    2     5.8900   -393.60973
    3     5.7800   -393.61032
    4     5.6700   -393.61094
    5     5.5600   -393.61158
    6     5.4500   -393.61225
    7     5.3400   -393.61294
    8     5.2300   -393.61366
    9     5.1200   -393.61442
   10     5.0100   -393.61521
   11     4.9000   -393.61603
   12     4.7900   -393.61690
   13     4.6800   -393.61780
   14     4.5700   -393.61876
   15     4.4600   -393.61976
   16     4.3500   -393.62083
   17     4.2400   -393.62197
   18     4.1300   -393.62320
   19     4.0200   -393.62455
   20     3.9100   -393.62605
   21     3.8000   -393.62776
   22     3.6900   -393.62978
   23     3.5800   -393.63224
   24     3.4700   -393.63533
   25     3.3600   -393.63935
   26     3.2500   -393.64474
   27     3.1400   -393.65217
   28     3.0300   -393.66276
   29     2.9200   -393.67841
   30     2.8100   -393.70457
   31     2.7000   -393.73631
   32     2.5900   -393.77258
   33     2.4800   -393.81302
   34     2.3700   -393.85764
   35     2.2600   -393.90636
   36     2.1500   -393.95885
   37     2.0400   -394.01449
   38     1.9300   -394.07228
   39     1.8200   -394.13071
   40     1.7100   -394.18756
   41     1.6000   -394.23965
   42     1.4900   -394.28224
   43     1.3800   -394.30816
   44     1.2700   -394.30628
   45     1.1600   -394.25907
   46     1.0500   -394.13868
   47     0.9400   -393.90062
   48     0.8300   -393.47344
   49     0.7200   -392.74299
   50     0.6100   -391.52057
   51     0.5000   -389.41807
 ----  ---------  -----------
  
 1|1|UNPC-UNK|Scan|UHF|STO-3G|H2S1|PCUSER|19-Jun-2017|1||# UHF/STO-3G S
 CAN GUESS=MIX||H2S-UHF-sto-3g-SCAN-GEO-SYM||0,1|S|H,1,r|H,1,r,2,aHSH||
 r=6.,s,50,-0.11|aHSH=92.11||Version=x86-Win32-G03RevB.03|HF=-393.60915
 59,-393.6097278,-393.6103215,-393.6109382,-393.6115794,-393.6122464,-3
 93.612941,-393.6136649,-393.6144201,-393.6152088,-393.6160335,-393.616
 8972,-393.6178035,-393.6187569,-393.6197634,-393.620831,-393.6219714,-
 393.6232018,-393.6245476,-393.6260481,-393.6277627,-393.6297813,-393.6
 322382,-393.6353312,-393.639352,-393.6447389,-393.6521738,-393.6627632
 ,-393.6784085,-393.7045699,-393.7363095,-393.7725817,-393.8130152,-393
 .8576409,-393.9063586,-393.9588484,-394.014492,-394.0722826,-394.13070
 71,-394.1875638,-394.2396538,-394.2822448,-394.3081613,-394.3062765,-3
 94.2590658,-394.1386824,-393.9006174,-393.473436,-392.7429928,-391.520
 5659,-389.4180652|S2=0.,0.,0.,0.,0.,0.,0.,0.,0.,0.,0.,0.,0.,0.,0.,0.,0
 .,0.,0.,0.,0.,0.,0.,0.,0.,0.,0.,0.,0.,0.,0.,0.,0.,0.,0.,0.,0.,0.,0.,0.
 ,0.,0.,0.,0.,0.,0.,0.,0.,0.,0.,0.|S2-1=0.,0.,0.,0.,0.,0.,0.,0.,0.,0.,0
 .,0.,0.,0.,0.,0.,0.,0.,0.,0.,0.,0.,0.,0.,0.,0.,0.,0.,0.,0.,0.,0.,0.,0.
 ,0.,0.,0.,0.,0.,0.,0.,0.,0.,0.,0.,0.,0.,0.,0.,0.,0.|S2A=0.,0.,0.,0.,0.
 ,0.,0.,0.,0.,0.,0.,0.,0.,0.,0.,0.,0.,0.,0.,0.,0.,0.,0.,0.,0.,0.,0.,0.,
 0.,0.,0.,0.,0.,0.,0.,0.,0.,0.,0.,0.,0.,0.,0.,0.,0.,0.,0.,0.,0.,0.,0.|R
 MSD=7.744e-009,1.308e-013,2.890e-013,6.430e-013,1.409e-012,3.050e-012,
 6.536e-012,1.392e-011,2.970e-011,6.418e-011,1.428e-010,3.324e-010,8.15
 7e-010,2.100e-009,5.588e-009,6.336e-010,2.061e-009,6.914e-009,4.175e-0
 09,4.367e-010,1.314e-009,3.255e-009,5.834e-009,5.720e-009,1.188e-009,4
 .215e-009,3.254e-010,2.691e-009,1.174e-009,5.822e-010,7.441e-009,2.910
 e-009,1.609e-010,4.108e-010,6.832e-009,5.962e-011,5.321e-010,3.465e-01
 0,6.582e-010,7.801e-010,7.636e-010,6.517e-010,4.761e-010,4.482e-010,2.
 386e-010,5.130e-010,4.499e-010,2.216e-010,3.512e-009,1.256e-009,7.512e
 -010|PG=C02V [C2(S1),SGV(H2)]||@


 GETTING A SIMPLE ANSWER FROM A PROFESSOR IS LIKE
 GETTING A THIMBLE OF WATER FROM A FIRE HYDRANT.
     -- PROF. LEN SHAPIRO, NDSU
 Job cpu time:  0 days  0 hours  0 minutes 27.0 seconds.
 File lengths (MBytes):  RWF=     17 Int=      0 D2E=      0 Chk=     12 Scr=      1
 Normal termination of Gaussian 03 at Mon Jun 19 09:52:19 2017.
