
     Program PROJWFC v.4.3.2    starts on 30Sep2016 at 18:49:40 

     This program is part of the open-source Quantum ESPRESSO suite
     for quantum simulation of materials; please cite
         "P. Giannozzi et al., J. Phys.:Condens. Matter 21 395502 (2009);
          URL http://www.quantum-espresso.org", 
     in publications or presentations arising from this work. More details at
     http://www.quantum-espresso.org/wiki/index.php/Citing_Quantum-ESPRESSO

     Parallel version (MPI), running on     1 processors

   Info: using nr1, nr2, nr3 values from input

   Info: using nr1s, nr2s, nr3s values from input

     G-vector sticks info
     --------------------
     sticks:   dense  smooth     PW     G-vecs:    dense   smooth      PW
     Sum         253     253     85                 2733     2733     537


     Gaussian broadening (read from input): ngauss,degauss=   1    0.020000


     Calling projwave .... 

     Atomic states used for projection
     (read from pseudopotential files):

     state #   1: atom   1 (Si ), wfc  1 (l=0 m= 1)
     state #   2: atom   1 (Si ), wfc  2 (l=1 m= 1)
     state #   3: atom   1 (Si ), wfc  2 (l=1 m= 2)
     state #   4: atom   1 (Si ), wfc  2 (l=1 m= 3)
     state #   5: atom   2 (Si ), wfc  1 (l=0 m= 1)
     state #   6: atom   2 (Si ), wfc  2 (l=1 m= 1)
     state #   7: atom   2 (Si ), wfc  2 (l=1 m= 2)
     state #   8: atom   2 (Si ), wfc  2 (l=1 m= 3)

 k =   0.7500000000  0.7500000000  0.0000000000
==== e(   1) =    -2.12701 eV ==== 
     psi = 0.318*[#   1]+0.318*[#   5]+0.060*[#   2]+0.060*[#   3]+0.060*[#   4]+
          +0.060*[#   6]+0.060*[#   7]+0.060*[#   8]+
    |psi|^2 = 0.995
==== e(   2) =    -1.13743 eV ==== 
     psi = 0.251*[#   1]+0.251*[#   5]+0.082*[#   2]+0.082*[#   3]+0.082*[#   4]+
          +0.082*[#   6]+0.082*[#   7]+0.082*[#   8]+
    |psi|^2 = 0.993
==== e(   3) =     1.72240 eV ==== 
     psi = 0.166*[#   2]+0.166*[#   3]+0.166*[#   4]+0.166*[#   6]+0.166*[#   7]+
          +0.166*[#   8]+
    |psi|^2 = 0.994
==== e(   4) =     3.62640 eV ==== 
     psi = 0.166*[#   2]+0.166*[#   3]+0.166*[#   4]+0.166*[#   6]+0.166*[#   7]+
          +0.166*[#   8]+
    |psi|^2 = 0.993
==== e(   5) =     7.23439 eV ==== 
     psi = 0.139*[#   1]+0.139*[#   5]+0.092*[#   2]+0.092*[#   3]+0.092*[#   4]+
          +0.092*[#   6]+0.092*[#   7]+0.092*[#   8]+
    |psi|^2 = 0.833
==== e(   6) =    10.17044 eV ==== 
     psi = 0.095*[#   1]+0.095*[#   5]+0.062*[#   2]+0.062*[#   3]+0.062*[#   4]+
          +0.062*[#   6]+0.062*[#   7]+0.062*[#   8]+
    |psi|^2 = 0.563
==== e(   7) =    13.51734 eV ==== 
     psi = 0.138*[#   2]+0.138*[#   3]+0.138*[#   4]+0.138*[#   6]+0.138*[#   7]+
          +0.138*[#   8]+
    |psi|^2 = 0.827
==== e(   8) =    14.19754 eV ==== 
     psi = 0.101*[#   2]+0.101*[#   3]+0.101*[#   4]+0.101*[#   6]+0.101*[#   7]+
          +0.101*[#   8]+0.091*[#   1]+0.091*[#   5]+
    |psi|^2 = 0.789

 k =   0.8000000000  0.7000000000  0.0000000000
==== e(   1) =    -2.10486 eV ==== 
     psi = 0.317*[#   1]+0.317*[#   5]+0.060*[#   2]+0.060*[#   3]+0.060*[#   4]+
          +0.060*[#   6]+0.060*[#   7]+0.060*[#   8]+
    |psi|^2 = 0.995
==== e(   2) =    -1.14756 eV ==== 
     psi = 0.253*[#   1]+0.253*[#   5]+0.081*[#   2]+0.081*[#   3]+0.081*[#   4]+
          +0.081*[#   6]+0.081*[#   7]+0.081*[#   8]+
    |psi|^2 = 0.993
==== e(   3) =     1.74057 eV ==== 
     psi = 0.166*[#   2]+0.166*[#   3]+0.166*[#   4]+0.166*[#   6]+0.166*[#   7]+
          +0.166*[#   8]+
    |psi|^2 = 0.994
==== e(   4) =     3.48472 eV ==== 
     psi = 0.164*[#   2]+0.164*[#   3]+0.164*[#   4]+0.164*[#   6]+0.164*[#   7]+
          +0.164*[#   8]+0.003*[#   1]+0.003*[#   5]+
    |psi|^2 = 0.993
==== e(   5) =     7.44504 eV ==== 
     psi = 0.132*[#   1]+0.132*[#   5]+0.094*[#   2]+0.094*[#   3]+0.094*[#   4]+
          +0.094*[#   6]+0.094*[#   7]+0.094*[#   8]+
    |psi|^2 = 0.824
==== e(   6) =    10.18279 eV ==== 
     psi = 0.092*[#   1]+0.092*[#   5]+0.063*[#   2]+0.063*[#   3]+0.063*[#   4]+
          +0.063*[#   6]+0.063*[#   7]+0.063*[#   8]+
    |psi|^2 = 0.561
==== e(   7) =    13.09376 eV ==== 
     psi = 0.107*[#   2]+0.107*[#   3]+0.107*[#   4]+0.107*[#   6]+0.107*[#   7]+
          +0.107*[#   8]+0.033*[#   1]+0.033*[#   5]+
    |psi|^2 = 0.709
==== e(   8) =    13.59263 eV ==== 
     psi = 0.068*[#   2]+0.068*[#   3]+0.068*[#   4]+0.068*[#   6]+0.068*[#   7]+
          +0.068*[#   8]+0.065*[#   1]+0.065*[#   5]+
    |psi|^2 = 0.540

 k =   0.8500000000  0.6500000000  0.0000000000
==== e(   1) =    -2.03569 eV ==== 
     psi = 0.314*[#   1]+0.314*[#   5]+0.061*[#   2]+0.061*[#   3]+0.061*[#   4]+
          +0.061*[#   6]+0.061*[#   7]+0.061*[#   8]+
    |psi|^2 = 0.995
==== e(   2) =    -1.17866 eV ==== 
     psi = 0.261*[#   1]+0.261*[#   5]+0.079*[#   2]+0.079*[#   3]+0.079*[#   4]+
          +0.079*[#   6]+0.079*[#   7]+0.079*[#   8]+
    |psi|^2 = 0.994
==== e(   3) =     1.79657 eV ==== 
     psi = 0.166*[#   2]+0.166*[#   3]+0.166*[#   4]+0.166*[#   6]+0.166*[#   7]+
          +0.166*[#   8]+
    |psi|^2 = 0.994
==== e(   4) =     3.14698 eV ==== 
     psi = 0.163*[#   2]+0.163*[#   3]+0.163*[#   4]+0.163*[#   6]+0.163*[#   7]+
          +0.163*[#   8]+0.006*[#   1]+0.006*[#   5]+
    |psi|^2 = 0.993
==== e(   5) =     7.99774 eV ==== 
     psi = 0.115*[#   1]+0.115*[#   5]+0.094*[#   2]+0.094*[#   3]+0.094*[#   4]+
          +0.094*[#   6]+0.094*[#   7]+0.094*[#   8]+
    |psi|^2 = 0.798
==== e(   6) =    10.22649 eV ==== 
     psi = 0.081*[#   1]+0.081*[#   5]+0.066*[#   2]+0.066*[#   3]+0.066*[#   4]+
          +0.066*[#   6]+0.066*[#   7]+0.066*[#   8]+
    |psi|^2 = 0.557
==== e(   7) =    12.49998 eV ==== 
     psi = 0.098*[#   2]+0.098*[#   3]+0.098*[#   4]+0.098*[#   6]+0.098*[#   7]+
          +0.098*[#   8]+0.059*[#   1]+0.059*[#   5]+
    |psi|^2 = 0.708
==== e(   8) =    12.83324 eV ==== 
     psi = 0.069*[#   1]+0.069*[#   5]+0.067*[#   2]+0.067*[#   3]+0.067*[#   4]+
          +0.067*[#   6]+0.067*[#   7]+0.067*[#   8]+
    |psi|^2 = 0.542

 k =   0.9000000000  0.6000000000  0.0000000000
==== e(   1) =    -1.92055 eV ==== 
     psi = 0.308*[#   1]+0.308*[#   5]+0.063*[#   2]+0.063*[#   3]+0.063*[#   4]+
          +0.063*[#   6]+0.063*[#   7]+0.063*[#   8]+
    |psi|^2 = 0.995
==== e(   2) =    -1.24431 eV ==== 
     psi = 0.272*[#   1]+0.272*[#   5]+0.075*[#   2]+0.075*[#   3]+0.075*[#   4]+
          +0.075*[#   6]+0.075*[#   7]+0.075*[#   8]+
    |psi|^2 = 0.994
==== e(   3) =     1.88915 eV ==== 
     psi = 0.166*[#   2]+0.166*[#   3]+0.166*[#   4]+0.166*[#   6]+0.166*[#   7]+
          +0.166*[#   8]+
    |psi|^2 = 0.994
==== e(   4) =     2.75676 eV ==== 
     psi = 0.164*[#   2]+0.164*[#   3]+0.164*[#   4]+0.164*[#   6]+0.164*[#   7]+
          +0.164*[#   8]+0.005*[#   1]+0.005*[#   5]+
    |psi|^2 = 0.993
==== e(   5) =     8.75502 eV ==== 
     psi = 0.095*[#   1]+0.095*[#   5]+0.093*[#   2]+0.093*[#   3]+0.093*[#   4]+
          +0.093*[#   6]+0.093*[#   7]+0.093*[#   8]+
    |psi|^2 = 0.747
==== e(   6) =    10.29222 eV ==== 
     psi = 0.070*[#   2]+0.070*[#   3]+0.070*[#   4]+0.070*[#   6]+0.070*[#   7]+
          +0.070*[#   8]+0.063*[#   1]+0.063*[#   5]+
    |psi|^2 = 0.544
==== e(   7) =    11.92058 eV ==== 
     psi = 0.094*[#   2]+0.094*[#   3]+0.094*[#   4]+0.094*[#   6]+0.094*[#   7]+
          +0.094*[#   8]+0.088*[#   1]+0.088*[#   5]+
    |psi|^2 = 0.739
==== e(   8) =    12.09993 eV ==== 
     psi = 0.082*[#   1]+0.082*[#   5]+0.071*[#   2]+0.071*[#   3]+0.071*[#   4]+
          +0.071*[#   6]+0.071*[#   7]+0.071*[#   8]+
    |psi|^2 = 0.591

 k =   0.9500000000  0.5500000000  0.0000000000
==== e(   1) =    -1.76017 eV ==== 
     psi = 0.302*[#   1]+0.302*[#   5]+0.065*[#   2]+0.065*[#   3]+0.065*[#   4]+
          +0.065*[#   6]+0.065*[#   7]+0.065*[#   8]+
    |psi|^2 = 0.995
==== e(   2) =    -1.36354 eV ==== 
     psi = 0.284*[#   1]+0.284*[#   5]+0.071*[#   2]+0.071*[#   3]+0.071*[#   4]+
          +0.071*[#   6]+0.071*[#   7]+0.071*[#   8]+
    |psi|^2 = 0.994
==== e(   3) =     2.01622 eV ==== 
     psi = 0.166*[#   2]+0.166*[#   3]+0.166*[#   4]+0.166*[#   6]+0.166*[#   7]+
          +0.166*[#   8]+
    |psi|^2 = 0.994
==== e(   4) =     2.41458 eV ==== 
     psi = 0.165*[#   2]+0.165*[#   3]+0.165*[#   4]+0.165*[#   6]+0.165*[#   7]+
          +0.165*[#   8]+0.002*[#   1]+0.002*[#   5]+
    |psi|^2 = 0.994
==== e(   5) =     9.61645 eV ==== 
     psi = 0.088*[#   2]+0.088*[#   3]+0.088*[#   4]+0.088*[#   6]+0.088*[#   7]+
          +0.088*[#   8]+0.063*[#   1]+0.063*[#   5]+
    |psi|^2 = 0.657
==== e(   6) =    10.35252 eV ==== 
     psi = 0.075*[#   2]+0.075*[#   3]+0.075*[#   4]+0.075*[#   6]+0.075*[#   7]+
          +0.075*[#   8]+0.031*[#   1]+0.031*[#   5]+
    |psi|^2 = 0.511
==== e(   7) =    11.39807 eV ==== 
     psi = 0.128*[#   1]+0.128*[#   5]+0.089*[#   2]+0.089*[#   3]+0.089*[#   4]+
          +0.089*[#   6]+0.089*[#   7]+0.089*[#   8]+
    |psi|^2 = 0.792
==== e(   8) =    11.42560 eV ==== 
     psi = 0.107*[#   1]+0.107*[#   5]+0.077*[#   2]+0.077*[#   3]+0.077*[#   4]+
          +0.077*[#   6]+0.077*[#   7]+0.077*[#   8]+
    |psi|^2 = 0.677

 k =   1.0000000000  0.5000000000  0.0000000000
==== e(   1) =    -1.55509 eV ==== 
     psi = 0.294*[#   1]+0.294*[#   5]+0.068*[#   2]+0.068*[#   3]+0.068*[#   4]+
          +0.068*[#   6]+0.068*[#   7]+0.068*[#   8]+
    |psi|^2 = 0.995
==== e(   2) =    -1.55509 eV ==== 
     psi = 0.294*[#   1]+0.294*[#   5]+0.068*[#   2]+0.068*[#   3]+0.068*[#   4]+
          +0.068*[#   6]+0.068*[#   7]+0.068*[#   8]+
    |psi|^2 = 0.995
==== e(   3) =     2.17600 eV ==== 
     psi = 0.166*[#   2]+0.166*[#   3]+0.166*[#   4]+0.166*[#   6]+0.166*[#   7]+
          +0.166*[#   8]+
    |psi|^2 = 0.994
==== e(   4) =     2.17600 eV ==== 
     psi = 0.166*[#   2]+0.166*[#   3]+0.166*[#   4]+0.166*[#   6]+0.166*[#   7]+
          +0.166*[#   8]+
    |psi|^2 = 0.994
==== e(   5) =    10.30289 eV ==== 
     psi = 0.080*[#   2]+0.080*[#   3]+0.080*[#   4]+0.080*[#   6]+0.080*[#   7]+
          +0.080*[#   8]+
    |psi|^2 = 0.482
==== e(   6) =    10.30289 eV ==== 
     psi = 0.080*[#   2]+0.080*[#   3]+0.080*[#   4]+0.080*[#   6]+0.080*[#   7]+
          +0.080*[#   8]+
    |psi|^2 = 0.482
==== e(   7) =    11.04467 eV ==== 
     psi = 0.165*[#   1]+0.165*[#   5]+0.085*[#   2]+0.085*[#   3]+0.085*[#   4]+
          +0.085*[#   6]+0.085*[#   7]+0.085*[#   8]+
    |psi|^2 = 0.840
==== e(   8) =    11.04467 eV ==== 
     psi = 0.165*[#   1]+0.165*[#   5]+0.085*[#   2]+0.085*[#   3]+0.085*[#   4]+
          +0.085*[#   6]+0.085*[#   7]+0.085*[#   8]+
    |psi|^2 = 0.840

 k =   0.9000000000  0.4500000000  0.0000000000
==== e(   1) =    -2.08318 eV ==== 
     psi = 0.305*[#   1]+0.305*[#   5]+0.064*[#   2]+0.064*[#   3]+0.064*[#   4]+
          +0.064*[#   6]+0.064*[#   7]+0.064*[#   8]+
    |psi|^2 = 0.995
==== e(   2) =    -1.05428 eV ==== 
     psi = 0.277*[#   1]+0.277*[#   5]+0.073*[#   2]+0.073*[#   3]+0.073*[#   4]+
          +0.073*[#   6]+0.073*[#   7]+0.073*[#   8]+
    |psi|^2 = 0.994
==== e(   3) =     1.97673 eV ==== 
     psi = 0.164*[#   2]+0.164*[#   3]+0.164*[#   4]+0.164*[#   6]+0.164*[#   7]+
          +0.164*[#   8]+0.005*[#   1]+0.005*[#   5]+
    |psi|^2 = 0.994
==== e(   4) =     2.57224 eV ==== 
     psi = 0.165*[#   2]+0.165*[#   3]+0.165*[#   4]+0.165*[#   6]+0.165*[#   7]+
          +0.165*[#   8]+
    |psi|^2 = 0.993
==== e(   5) =     9.95129 eV ==== 
     psi = 0.090*[#   2]+0.090*[#   3]+0.090*[#   4]+0.090*[#   6]+0.090*[#   7]+
          +0.090*[#   8]+0.064*[#   1]+0.064*[#   5]+
    |psi|^2 = 0.667
==== e(   6) =    10.00353 eV ==== 
     psi = 0.082*[#   2]+0.082*[#   3]+0.082*[#   4]+0.082*[#   6]+0.082*[#   7]+
          +0.082*[#   8]+0.008*[#   1]+0.008*[#   5]+
    |psi|^2 = 0.510
==== e(   7) =    10.71181 eV ==== 
     psi = 0.165*[#   1]+0.165*[#   5]+0.084*[#   2]+0.084*[#   3]+0.084*[#   4]+
          +0.084*[#   6]+0.084*[#   7]+0.084*[#   8]+
    |psi|^2 = 0.832
==== e(   8) =    12.25038 eV ==== 
     psi = 0.089*[#   1]+0.089*[#   5]+0.072*[#   2]+0.072*[#   3]+0.072*[#   4]+
          +0.072*[#   6]+0.072*[#   7]+0.072*[#   8]+
    |psi|^2 = 0.609

 k =   0.8000000000  0.4000000000  0.0000000000
==== e(   1) =    -2.71223 eV ==== 
     psi = 0.310*[#   1]+0.310*[#   5]+0.062*[#   2]+0.062*[#   3]+0.062*[#   4]+
          +0.062*[#   6]+0.062*[#   7]+0.062*[#   8]+
    |psi|^2 = 0.995
==== e(   2) =    -0.46846 eV ==== 
     psi = 0.258*[#   1]+0.258*[#   5]+0.080*[#   2]+0.080*[#   3]+0.080*[#   4]+
          +0.080*[#   6]+0.080*[#   7]+0.080*[#   8]+
    |psi|^2 = 0.993
==== e(   3) =     2.05042 eV ==== 
     psi = 0.160*[#   2]+0.160*[#   3]+0.160*[#   4]+0.160*[#   6]+0.160*[#   7]+
          +0.160*[#   8]+0.017*[#   1]+0.017*[#   5]+
    |psi|^2 = 0.993
==== e(   4) =     3.04716 eV ==== 
     psi = 0.165*[#   2]+0.165*[#   3]+0.165*[#   4]+0.165*[#   6]+0.165*[#   7]+
          +0.165*[#   8]+0.002*[#   1]+0.002*[#   5]+
    |psi|^2 = 0.992
==== e(   5) =     9.43620 eV ==== 
     psi = 0.100*[#   2]+0.100*[#   3]+0.100*[#   4]+0.100*[#   6]+0.100*[#   7]+
          +0.100*[#   8]+0.084*[#   1]+0.084*[#   5]+
    |psi|^2 = 0.769
==== e(   6) =     9.80570 eV ==== 
     psi = 0.075*[#   2]+0.075*[#   3]+0.075*[#   4]+0.075*[#   6]+0.075*[#   7]+
          +0.075*[#   8]+0.030*[#   1]+0.030*[#   5]+
    |psi|^2 = 0.512
==== e(   7) =    10.47817 eV ==== 
     psi = 0.149*[#   1]+0.149*[#   5]+0.089*[#   2]+0.089*[#   3]+0.089*[#   4]+
          +0.089*[#   6]+0.089*[#   7]+0.089*[#   8]+
    |psi|^2 = 0.832
==== e(   8) =    13.82070 eV ==== 
     psi = 0.056*[#   2]+0.056*[#   3]+0.056*[#   4]+0.056*[#   6]+0.056*[#   7]+
          +0.056*[#   8]+0.056*[#   1]+0.056*[#   5]+
    |psi|^2 = 0.450

 k =   0.7000000000  0.3500000000  0.0000000000
==== e(   1) =    -3.36532 eV ==== 
     psi = 0.316*[#   1]+0.316*[#   5]+0.061*[#   2]+0.061*[#   3]+0.061*[#   4]+
          +0.061*[#   6]+0.061*[#   7]+0.061*[#   8]+
    |psi|^2 = 0.994
==== e(   2) =     0.20329 eV ==== 
     psi = 0.237*[#   1]+0.237*[#   5]+0.086*[#   2]+0.086*[#   3]+0.086*[#   4]+
          +0.086*[#   6]+0.086*[#   7]+0.086*[#   8]+
    |psi|^2 = 0.992
==== e(   3) =     2.33523 eV ==== 
     psi = 0.156*[#   2]+0.156*[#   3]+0.156*[#   4]+0.156*[#   6]+0.156*[#   7]+
          +0.156*[#   8]+0.029*[#   1]+0.029*[#   5]+
    |psi|^2 = 0.993
==== e(   4) =     3.57357 eV ==== 
     psi = 0.164*[#   2]+0.164*[#   3]+0.164*[#   4]+0.164*[#   6]+0.164*[#   7]+
          +0.164*[#   8]+0.005*[#   1]+0.005*[#   5]+
    |psi|^2 = 0.991
==== e(   5) =     9.01326 eV ==== 
     psi = 0.110*[#   2]+0.110*[#   3]+0.110*[#   4]+0.110*[#   6]+0.110*[#   7]+
          +0.110*[#   8]+0.090*[#   1]+0.090*[#   5]+
    |psi|^2 = 0.837
==== e(   6) =     9.74074 eV ==== 
     psi = 0.063*[#   2]+0.063*[#   3]+0.063*[#   4]+0.063*[#   6]+0.063*[#   7]+
          +0.063*[#   8]+0.058*[#   1]+0.058*[#   5]+
    |psi|^2 = 0.493
==== e(   7) =    10.32410 eV ==== 
     psi = 0.123*[#   1]+0.123*[#   5]+0.099*[#   2]+0.099*[#   3]+0.099*[#   4]+
          +0.099*[#   6]+0.099*[#   7]+0.099*[#   8]+
    |psi|^2 = 0.838
==== e(   8) =    13.45121 eV ==== 
     psi = 0.108*[#   2]+0.108*[#   3]+0.108*[#   4]+0.108*[#   6]+0.108*[#   7]+
          +0.108*[#   8]+0.014*[#   1]+0.014*[#   5]+
    |psi|^2 = 0.680

 k =   0.6000000000  0.3000000000  0.0000000000
==== e(   1) =    -3.98696 eV ==== 
     psi = 0.326*[#   1]+0.326*[#   5]+0.057*[#   2]+0.057*[#   3]+0.057*[#   4]+
          +0.057*[#   6]+0.057*[#   7]+0.057*[#   8]+
    |psi|^2 = 0.994
==== e(   2) =     0.95742 eV ==== 
     psi = 0.215*[#   1]+0.215*[#   5]+0.093*[#   2]+0.093*[#   3]+0.093*[#   4]+
          +0.093*[#   6]+0.093*[#   7]+0.093*[#   8]+
    |psi|^2 = 0.991
==== e(   3) =     2.77583 eV ==== 
     psi = 0.153*[#   2]+0.153*[#   3]+0.153*[#   4]+0.153*[#   6]+0.153*[#   7]+
          +0.153*[#   8]+0.035*[#   1]+0.035*[#   5]+
    |psi|^2 = 0.992
==== e(   4) =     4.11452 eV ==== 
     psi = 0.162*[#   2]+0.162*[#   3]+0.162*[#   4]+0.162*[#   6]+0.162*[#   7]+
          +0.162*[#   8]+0.008*[#   1]+0.008*[#   5]+
    |psi|^2 = 0.989
==== e(   5) =     8.69731 eV ==== 
     psi = 0.117*[#   2]+0.117*[#   3]+0.117*[#   4]+0.117*[#   6]+0.117*[#   7]+
          +0.117*[#   8]+0.089*[#   1]+0.089*[#   5]+
    |psi|^2 = 0.884
==== e(   6) =     9.82729 eV ==== 
     psi = 0.102*[#   1]+0.102*[#   5]+0.048*[#   2]+0.048*[#   3]+0.048*[#   4]+
          +0.048*[#   6]+0.048*[#   7]+0.048*[#   8]+
    |psi|^2 = 0.491
==== e(   7) =    10.21494 eV ==== 
     psi = 0.111*[#   2]+0.111*[#   3]+0.111*[#   4]+0.111*[#   6]+0.111*[#   7]+
          +0.111*[#   8]+0.081*[#   1]+0.081*[#   5]+
    |psi|^2 = 0.825
==== e(   8) =    12.46564 eV ==== 
     psi = 0.123*[#   2]+0.123*[#   3]+0.123*[#   4]+0.123*[#   6]+0.123*[#   7]+
          +0.123*[#   8]+0.016*[#   1]+0.016*[#   5]+
    |psi|^2 = 0.770

 k =   0.5000000000  0.2500000000  0.0000000000
==== e(   1) =    -4.54256 eV ==== 
     psi = 0.344*[#   1]+0.344*[#   5]+0.051*[#   2]+0.051*[#   3]+0.051*[#   4]+
          +0.051*[#   6]+0.051*[#   7]+0.051*[#   8]+
    |psi|^2 = 0.994
==== e(   2) =     1.79258 eV ==== 
     psi = 0.192*[#   1]+0.192*[#   5]+0.101*[#   2]+0.101*[#   3]+0.101*[#   4]+
          +0.101*[#   6]+0.101*[#   7]+0.101*[#   8]+
    |psi|^2 = 0.989
==== e(   3) =     3.33158 eV ==== 
     psi = 0.153*[#   2]+0.153*[#   3]+0.153*[#   4]+0.153*[#   6]+0.153*[#   7]+
          +0.153*[#   8]+0.036*[#   1]+0.036*[#   5]+
    |psi|^2 = 0.990
==== e(   4) =     4.63181 eV ==== 
     psi = 0.161*[#   2]+0.161*[#   3]+0.161*[#   4]+0.161*[#   6]+0.161*[#   7]+
          +0.161*[#   8]+0.011*[#   1]+0.011*[#   5]+
    |psi|^2 = 0.987
==== e(   5) =     8.49108 eV ==== 
     psi = 0.125*[#   2]+0.125*[#   3]+0.125*[#   4]+0.125*[#   6]+0.125*[#   7]+
          +0.125*[#   8]+0.083*[#   1]+0.083*[#   5]+
    |psi|^2 = 0.915
==== e(   6) =     9.94131 eV ==== 
     psi = 0.186*[#   1]+0.186*[#   5]+0.069*[#   2]+0.069*[#   3]+0.069*[#   4]+
          +0.069*[#   6]+0.069*[#   7]+0.069*[#   8]+
    |psi|^2 = 0.787
==== e(   7) =    10.24912 eV ==== 
     psi = 0.087*[#   2]+0.087*[#   3]+0.087*[#   4]+0.087*[#   6]+0.087*[#   7]+
          +0.087*[#   8]+
    |psi|^2 = 0.524
==== e(   8) =    11.55646 eV ==== 
     psi = 0.134*[#   2]+0.134*[#   3]+0.134*[#   4]+0.134*[#   6]+0.134*[#   7]+
          +0.134*[#   8]+0.017*[#   1]+0.017*[#   5]+
    |psi|^2 = 0.838

 k =   0.4000000000  0.2000000000  0.0000000000
==== e(   1) =    -5.01239 eV ==== 
     psi = 0.370*[#   1]+0.370*[#   5]+0.043*[#   2]+0.043*[#   3]+0.043*[#   4]+
          +0.043*[#   6]+0.043*[#   7]+0.043*[#   8]+
    |psi|^2 = 0.995
==== e(   2) =     2.70325 eV ==== 
     psi = 0.165*[#   1]+0.165*[#   5]+0.109*[#   2]+0.109*[#   3]+0.109*[#   4]+
          +0.109*[#   6]+0.109*[#   7]+0.109*[#   8]+
    |psi|^2 = 0.986
==== e(   3) =     3.96924 eV ==== 
     psi = 0.155*[#   2]+0.155*[#   3]+0.155*[#   4]+0.155*[#   6]+0.155*[#   7]+
          +0.155*[#   8]+0.030*[#   1]+0.030*[#   5]+
    |psi|^2 = 0.988
==== e(   4) =     5.09259 eV ==== 
     psi = 0.159*[#   2]+0.159*[#   3]+0.159*[#   4]+0.159*[#   6]+0.159*[#   7]+
          +0.159*[#   8]+0.013*[#   1]+0.013*[#   5]+
    |psi|^2 = 0.984
==== e(   5) =     8.39394 eV ==== 
     psi = 0.132*[#   2]+0.132*[#   3]+0.132*[#   4]+0.132*[#   6]+0.132*[#   7]+
          +0.132*[#   8]+0.072*[#   1]+0.072*[#   5]+
    |psi|^2 = 0.935
==== e(   6) =     9.77562 eV ==== 
     psi = 0.155*[#   1]+0.155*[#   5]+0.102*[#   2]+0.102*[#   3]+0.102*[#   4]+
          +0.102*[#   6]+0.102*[#   7]+0.102*[#   8]+
    |psi|^2 = 0.923
==== e(   7) =    10.65714 eV ==== 
     psi = 0.057*[#   2]+0.057*[#   3]+0.057*[#   4]+0.057*[#   6]+0.057*[#   7]+
          +0.057*[#   8]+0.045*[#   1]+0.045*[#   5]+
    |psi|^2 = 0.434
==== e(   8) =    10.72345 eV ==== 
     psi = 0.143*[#   2]+0.143*[#   3]+0.143*[#   4]+0.143*[#   6]+0.143*[#   7]+
          +0.143*[#   8]+0.015*[#   1]+0.015*[#   5]+
    |psi|^2 = 0.886

 k =   0.3000000000  0.1500000000  0.0000000000
==== e(   1) =    -5.38549 eV ==== 
     psi = 0.405*[#   1]+0.405*[#   5]+0.031*[#   2]+0.031*[#   3]+0.031*[#   4]+
          +0.031*[#   6]+0.031*[#   7]+0.031*[#   8]+
    |psi|^2 = 0.995
==== e(   2) =     3.67890 eV ==== 
     psi = 0.134*[#   1]+0.134*[#   5]+0.119*[#   2]+0.119*[#   3]+0.119*[#   4]+
          +0.119*[#   6]+0.119*[#   7]+0.119*[#   8]+
    |psi|^2 = 0.982
==== e(   3) =     4.64809 eV ==== 
     psi = 0.158*[#   2]+0.158*[#   3]+0.158*[#   4]+0.158*[#   6]+0.158*[#   7]+
          +0.158*[#   8]+0.019*[#   1]+0.019*[#   5]+
    |psi|^2 = 0.984
==== e(   4) =     5.47928 eV ==== 
     psi = 0.159*[#   2]+0.159*[#   3]+0.159*[#   4]+0.159*[#   6]+0.159*[#   7]+
          +0.159*[#   8]+0.013*[#   1]+0.013*[#   5]+
    |psi|^2 = 0.978
==== e(   5) =     8.39561 eV ==== 
     psi = 0.140*[#   2]+0.140*[#   3]+0.140*[#   4]+0.140*[#   6]+0.140*[#   7]+
          +0.140*[#   8]+0.056*[#   1]+0.056*[#   5]+
    |psi|^2 = 0.948
==== e(   6) =     9.48871 eV ==== 
     psi = 0.135*[#   1]+0.135*[#   5]+0.113*[#   2]+0.113*[#   3]+0.113*[#   4]+
          +0.113*[#   6]+0.113*[#   7]+0.113*[#   8]+
    |psi|^2 = 0.948
==== e(   7) =     9.97818 eV ==== 
     psi = 0.149*[#   2]+0.149*[#   3]+0.149*[#   4]+0.149*[#   6]+0.149*[#   7]+
          +0.149*[#   8]+0.013*[#   1]+0.013*[#   5]+
    |psi|^2 = 0.919
==== e(   8) =    11.02838 eV ==== 
     psi = 0.128*[#   1]+0.128*[#   5]+0.067*[#   2]+0.067*[#   3]+0.067*[#   4]+
          +0.067*[#   6]+0.067*[#   7]+0.067*[#   8]+
    |psi|^2 = 0.660

 k =   0.2000000000  0.1000000000  0.0000000000
==== e(   1) =    -5.65472 eV ==== 
     psi = 0.446*[#   1]+0.446*[#   5]+0.017*[#   2]+0.017*[#   3]+0.017*[#   4]+
          +0.017*[#   6]+0.017*[#   7]+0.017*[#   8]+
    |psi|^2 = 0.995
==== e(   2) =     4.68422 eV ==== 
     psi = 0.131*[#   2]+0.131*[#   3]+0.131*[#   4]+0.131*[#   6]+0.131*[#   7]+
          +0.131*[#   8]+0.095*[#   1]+0.095*[#   5]+
    |psi|^2 = 0.977
==== e(   3) =     5.30891 eV ==== 
     psi = 0.160*[#   2]+0.160*[#   3]+0.160*[#   4]+0.160*[#   6]+0.160*[#   7]+
          +0.160*[#   8]+0.007*[#   1]+0.007*[#   5]+
    |psi|^2 = 0.977
==== e(   4) =     5.78679 eV ==== 
     psi = 0.159*[#   2]+0.159*[#   3]+0.159*[#   4]+0.159*[#   6]+0.159*[#   7]+
          +0.159*[#   8]+0.009*[#   1]+0.009*[#   5]+
    |psi|^2 = 0.971
==== e(   5) =     8.47670 eV ==== 
     psi = 0.149*[#   2]+0.149*[#   3]+0.149*[#   4]+0.149*[#   6]+0.149*[#   7]+
          +0.149*[#   8]+0.033*[#   1]+0.033*[#   5]+
    |psi|^2 = 0.958
==== e(   6) =     9.16426 eV ==== 
     psi = 0.124*[#   2]+0.124*[#   3]+0.124*[#   4]+0.124*[#   6]+0.124*[#   7]+
          +0.124*[#   8]+0.106*[#   1]+0.106*[#   5]+
    |psi|^2 = 0.957
==== e(   7) =     9.33072 eV ==== 
     psi = 0.154*[#   2]+0.154*[#   3]+0.154*[#   4]+0.154*[#   6]+0.154*[#   7]+
          +0.154*[#   8]+0.009*[#   1]+0.009*[#   5]+
    |psi|^2 = 0.942
==== e(   8) =    10.57762 eV ==== 
     psi = 0.271*[#   1]+0.271*[#   5]+0.067*[#   2]+0.067*[#   3]+0.067*[#   4]+
          +0.067*[#   6]+0.067*[#   7]+0.067*[#   8]+
    |psi|^2 = 0.944

 k =   0.1000000000  0.0500000000  0.0000000000
==== e(   1) =    -5.81823 eV ==== 
     psi = 0.483*[#   1]+0.483*[#   5]+0.005*[#   2]+0.005*[#   3]+0.005*[#   4]+
          +0.005*[#   6]+0.005*[#   7]+0.005*[#   8]+
    |psi|^2 = 0.996
==== e(   2) =     5.60869 eV ==== 
     psi = 0.147*[#   2]+0.147*[#   3]+0.147*[#   4]+0.147*[#   6]+0.147*[#   7]+
          +0.147*[#   8]+0.042*[#   1]+0.042*[#   5]+
    |psi|^2 = 0.969
==== e(   3) =     5.84564 eV ==== 
     psi = 0.161*[#   2]+0.161*[#   3]+0.161*[#   4]+0.161*[#   6]+0.161*[#   7]+
          +0.161*[#   8]+
    |psi|^2 = 0.968
==== e(   4) =     5.99466 eV ==== 
     psi = 0.160*[#   2]+0.160*[#   3]+0.160*[#   4]+0.160*[#   6]+0.160*[#   7]+
          +0.160*[#   8]+0.003*[#   1]+0.003*[#   5]+
    |psi|^2 = 0.965
==== e(   5) =     8.58023 eV ==== 
     psi = 0.157*[#   2]+0.157*[#   3]+0.157*[#   4]+0.157*[#   6]+0.157*[#   7]+
          +0.157*[#   8]+0.010*[#   1]+0.010*[#   5]+
    |psi|^2 = 0.964
==== e(   6) =     8.83426 eV ==== 
     psi = 0.159*[#   2]+0.159*[#   3]+0.159*[#   4]+0.159*[#   6]+0.159*[#   7]+
          +0.159*[#   8]+0.003*[#   1]+0.003*[#   5]+
    |psi|^2 = 0.959
==== e(   7) =     8.84550 eV ==== 
     psi = 0.149*[#   2]+0.149*[#   3]+0.149*[#   4]+0.149*[#   6]+0.149*[#   7]+
          +0.149*[#   8]+0.035*[#   1]+0.035*[#   5]+
    |psi|^2 = 0.961
==== e(   8) =     9.71330 eV ==== 
     psi = 0.409*[#   1]+0.409*[#   5]+0.026*[#   2]+0.026*[#   3]+0.026*[#   4]+
          +0.026*[#   6]+0.026*[#   7]+0.026*[#   8]+
    |psi|^2 = 0.975

 k =   0.0000000000  0.0000000000  0.0000000000
==== e(   1) =    -5.87150 eV ==== 
     psi = 0.498*[#   1]+0.498*[#   5]+
    |psi|^2 = 0.996
==== e(   2) =     6.07186 eV ==== 
     psi = 0.161*[#   2]+0.161*[#   3]+0.161*[#   4]+0.161*[#   6]+0.161*[#   7]+
          +0.161*[#   8]+
    |psi|^2 = 0.963
==== e(   3) =     6.07186 eV ==== 
     psi = 0.161*[#   2]+0.161*[#   3]+0.161*[#   4]+0.161*[#   6]+0.161*[#   7]+
          +0.161*[#   8]+
    |psi|^2 = 0.963
==== e(   4) =     6.07186 eV ==== 
     psi = 0.161*[#   2]+0.161*[#   3]+0.161*[#   4]+0.161*[#   6]+0.161*[#   7]+
          +0.161*[#   8]+
    |psi|^2 = 0.963
==== e(   5) =     8.62999 eV ==== 
     psi = 0.161*[#   2]+0.161*[#   3]+0.161*[#   4]+0.161*[#   6]+0.161*[#   7]+
          +0.161*[#   8]+
    |psi|^2 = 0.966
==== e(   6) =     8.62999 eV ==== 
     psi = 0.161*[#   2]+0.161*[#   3]+0.161*[#   4]+0.161*[#   6]+0.161*[#   7]+
          +0.161*[#   8]+
    |psi|^2 = 0.966
==== e(   7) =     8.62999 eV ==== 
     psi = 0.161*[#   2]+0.161*[#   3]+0.161*[#   4]+0.161*[#   6]+0.161*[#   7]+
          +0.161*[#   8]+
    |psi|^2 = 0.966
==== e(   8) =     9.34023 eV ==== 
     psi = 0.490*[#   1]+0.490*[#   5]+
    |psi|^2 = 0.980

 k =   0.1000000000  0.0000000000  0.0000000000
==== e(   1) =    -5.82916 eV ==== 
     psi = 0.485*[#   1]+0.485*[#   5]+0.004*[#   2]+0.004*[#   3]+0.004*[#   4]+
          +0.004*[#   6]+0.004*[#   7]+0.004*[#   8]+
    |psi|^2 = 0.996
==== e(   2) =     5.79088 eV ==== 
     psi = 0.147*[#   2]+0.147*[#   3]+0.147*[#   4]+0.147*[#   6]+0.147*[#   7]+
          +0.147*[#   8]+0.041*[#   1]+0.041*[#   5]+
    |psi|^2 = 0.966
==== e(   3) =     5.89320 eV ==== 
     psi = 0.161*[#   2]+0.161*[#   3]+0.161*[#   4]+0.161*[#   6]+0.161*[#   7]+
          +0.161*[#   8]+
    |psi|^2 = 0.967
==== e(   4) =     5.89320 eV ==== 
     psi = 0.161*[#   2]+0.161*[#   3]+0.161*[#   4]+0.161*[#   6]+0.161*[#   7]+
          +0.161*[#   8]+
    |psi|^2 = 0.967
==== e(   5) =     8.51991 eV ==== 
     psi = 0.157*[#   2]+0.157*[#   3]+0.157*[#   4]+0.157*[#   6]+0.157*[#   7]+
          +0.157*[#   8]+0.012*[#   1]+0.012*[#   5]+
    |psi|^2 = 0.965
==== e(   6) =     8.86030 eV ==== 
     psi = 0.160*[#   2]+0.160*[#   3]+0.160*[#   4]+0.160*[#   6]+0.160*[#   7]+
          +0.160*[#   8]+
    |psi|^2 = 0.960
==== e(   7) =     8.86030 eV ==== 
     psi = 0.160*[#   2]+0.160*[#   3]+0.160*[#   4]+0.160*[#   6]+0.160*[#   7]+
          +0.160*[#   8]+
    |psi|^2 = 0.960
==== e(   8) =     9.60829 eV ==== 
     psi = 0.448*[#   1]+0.448*[#   5]+0.014*[#   2]+0.014*[#   3]+0.014*[#   4]+
          +0.014*[#   6]+0.014*[#   7]+0.014*[#   8]+
    |psi|^2 = 0.978

 k =   0.2000000000  0.0000000000  0.0000000000
==== e(   1) =    -5.69803 eV ==== 
     psi = 0.454*[#   1]+0.454*[#   5]+0.015*[#   2]+0.015*[#   3]+0.015*[#   4]+
          +0.015*[#   6]+0.015*[#   7]+0.015*[#   8]+
    |psi|^2 = 0.995
==== e(   2) =     5.13611 eV ==== 
     psi = 0.127*[#   2]+0.127*[#   3]+0.127*[#   4]+0.127*[#   6]+0.127*[#   7]+
          +0.127*[#   8]+0.105*[#   1]+0.105*[#   5]+
    |psi|^2 = 0.972
==== e(   3) =     5.48889 eV ==== 
     psi = 0.163*[#   2]+0.163*[#   3]+0.163*[#   4]+0.163*[#   6]+0.163*[#   7]+
          +0.163*[#   8]+
    |psi|^2 = 0.975
==== e(   4) =     5.48889 eV ==== 
     psi = 0.163*[#   2]+0.163*[#   3]+0.163*[#   4]+0.163*[#   6]+0.163*[#   7]+
          +0.163*[#   8]+
    |psi|^2 = 0.975
==== e(   5) =     8.23732 eV ==== 
     psi = 0.147*[#   2]+0.147*[#   3]+0.147*[#   4]+0.147*[#   6]+0.147*[#   7]+
          +0.147*[#   8]+0.042*[#   1]+0.042*[#   5]+
    |psi|^2 = 0.963
==== e(   6) =     9.42332 eV ==== 
     psi = 0.157*[#   2]+0.157*[#   3]+0.157*[#   4]+0.157*[#   6]+0.157*[#   7]+
          +0.157*[#   8]+
    |psi|^2 = 0.945
==== e(   7) =     9.42332 eV ==== 
     psi = 0.157*[#   2]+0.157*[#   3]+0.157*[#   4]+0.157*[#   6]+0.157*[#   7]+
          +0.157*[#   8]+
    |psi|^2 = 0.945
==== e(   8) =    10.16072 eV ==== 
     psi = 0.376*[#   1]+0.376*[#   5]+0.035*[#   2]+0.035*[#   3]+0.035*[#   4]+
          +0.035*[#   6]+0.035*[#   7]+0.035*[#   8]+
    |psi|^2 = 0.963

 k =   0.3000000000  0.0000000000  0.0000000000
==== e(   1) =    -5.48089 eV ==== 
     psi = 0.416*[#   1]+0.416*[#   5]+0.027*[#   2]+0.027*[#   3]+0.027*[#   4]+
          +0.027*[#   6]+0.027*[#   7]+0.027*[#   8]+
    |psi|^2 = 0.995
==== e(   2) =     4.32793 eV ==== 
     psi = 0.153*[#   1]+0.153*[#   5]+0.112*[#   2]+0.112*[#   3]+0.112*[#   4]+
          +0.112*[#   6]+0.112*[#   7]+0.112*[#   8]+
    |psi|^2 = 0.978
==== e(   3) =     5.02207 eV ==== 
     psi = 0.164*[#   2]+0.164*[#   3]+0.164*[#   4]+0.164*[#   6]+0.164*[#   7]+
          +0.164*[#   8]+
    |psi|^2 = 0.982
==== e(   4) =     5.02207 eV ==== 
     psi = 0.164*[#   2]+0.164*[#   3]+0.164*[#   4]+0.164*[#   6]+0.164*[#   7]+
          +0.164*[#   8]+
    |psi|^2 = 0.982
==== e(   5) =     7.87037 eV ==== 
     psi = 0.134*[#   2]+0.134*[#   3]+0.134*[#   4]+0.134*[#   6]+0.134*[#   7]+
          +0.134*[#   8]+0.078*[#   1]+0.078*[#   5]+
    |psi|^2 = 0.959
==== e(   6) =    10.15080 eV ==== 
     psi = 0.154*[#   2]+0.154*[#   3]+0.154*[#   4]+0.154*[#   6]+0.154*[#   7]+
          +0.154*[#   8]+
    |psi|^2 = 0.925
==== e(   7) =    10.15080 eV ==== 
     psi = 0.154*[#   2]+0.154*[#   3]+0.154*[#   4]+0.154*[#   6]+0.154*[#   7]+
          +0.154*[#   8]+
    |psi|^2 = 0.925
==== e(   8) =    10.40820 eV ==== 
     psi = 0.259*[#   1]+0.259*[#   5]+0.046*[#   2]+0.046*[#   3]+0.046*[#   4]+
          +0.046*[#   6]+0.046*[#   7]+0.046*[#   8]+
    |psi|^2 = 0.791

 k =   0.4000000000  0.0000000000  0.0000000000
==== e(   1) =    -5.17863 eV ==== 
     psi = 0.380*[#   1]+0.380*[#   5]+0.039*[#   2]+0.039*[#   3]+0.039*[#   4]+
          +0.039*[#   6]+0.039*[#   7]+0.039*[#   8]+
    |psi|^2 = 0.995
==== e(   2) =     3.45879 eV ==== 
     psi = 0.187*[#   1]+0.187*[#   5]+0.102*[#   2]+0.102*[#   3]+0.102*[#   4]+
          +0.102*[#   6]+0.102*[#   7]+0.102*[#   8]+
    |psi|^2 = 0.982
==== e(   3) =     4.57009 eV ==== 
     psi = 0.164*[#   2]+0.164*[#   3]+0.164*[#   4]+0.164*[#   6]+0.164*[#   7]+
          +0.164*[#   8]+
    |psi|^2 = 0.986
==== e(   4) =     4.57009 eV ==== 
     psi = 0.164*[#   2]+0.164*[#   3]+0.164*[#   4]+0.164*[#   6]+0.164*[#   7]+
          +0.164*[#   8]+
    |psi|^2 = 0.986
==== e(   5) =     7.49705 eV ==== 
     psi = 0.122*[#   2]+0.122*[#   3]+0.122*[#   4]+0.122*[#   6]+0.122*[#   7]+
          +0.122*[#   8]+0.112*[#   1]+0.112*[#   5]+
    |psi|^2 = 0.954
==== e(   6) =     9.92179 eV ==== 
     psi = 0.156*[#   1]+0.156*[#   5]+0.041*[#   2]+0.041*[#   3]+0.041*[#   4]+
          +0.041*[#   6]+0.041*[#   7]+0.041*[#   8]+
    |psi|^2 = 0.559
==== e(   7) =    10.95696 eV ==== 
     psi = 0.150*[#   2]+0.150*[#   3]+0.150*[#   4]+0.150*[#   6]+0.150*[#   7]+
          +0.150*[#   8]+
    |psi|^2 = 0.900
==== e(   8) =    10.95696 eV ==== 
     psi = 0.150*[#   2]+0.150*[#   3]+0.150*[#   4]+0.150*[#   6]+0.150*[#   7]+
          +0.150*[#   8]+
    |psi|^2 = 0.900

 k =   0.5000000000  0.0000000000  0.0000000000
==== e(   1) =    -4.79096 eV ==== 
     psi = 0.350*[#   1]+0.350*[#   5]+0.049*[#   2]+0.049*[#   3]+0.049*[#   4]+
          +0.049*[#   6]+0.049*[#   7]+0.049*[#   8]+
    |psi|^2 = 0.995
==== e(   2) =     2.57046 eV ==== 
     psi = 0.211*[#   1]+0.211*[#   5]+0.094*[#   2]+0.094*[#   3]+0.094*[#   4]+
          +0.094*[#   6]+0.094*[#   7]+0.094*[#   8]+
    |psi|^2 = 0.986
==== e(   3) =     4.16547 eV ==== 
     psi = 0.165*[#   2]+0.165*[#   3]+0.165*[#   4]+0.165*[#   6]+0.165*[#   7]+
          +0.165*[#   8]+
    |psi|^2 = 0.990
==== e(   4) =     4.16547 eV ==== 
     psi = 0.165*[#   2]+0.165*[#   3]+0.165*[#   4]+0.165*[#   6]+0.165*[#   7]+
          +0.165*[#   8]+
    |psi|^2 = 0.990
==== e(   5) =     7.16199 eV ==== 
     psi = 0.139*[#   1]+0.139*[#   5]+0.112*[#   2]+0.112*[#   3]+0.112*[#   4]+
          +0.112*[#   6]+0.112*[#   7]+0.112*[#   8]+
    |psi|^2 = 0.947
==== e(   6) =     9.17162 eV ==== 
     psi = 0.131*[#   1]+0.131*[#   5]+0.043*[#   2]+0.043*[#   3]+0.043*[#   4]+
          +0.043*[#   6]+0.043*[#   7]+0.043*[#   8]+
    |psi|^2 = 0.518
==== e(   7) =    11.81822 eV ==== 
     psi = 0.145*[#   2]+0.145*[#   3]+0.145*[#   4]+0.145*[#   6]+0.145*[#   7]+
          +0.145*[#   8]+
    |psi|^2 = 0.869
==== e(   8) =    11.81822 eV ==== 
     psi = 0.145*[#   2]+0.145*[#   3]+0.145*[#   4]+0.145*[#   6]+0.145*[#   7]+
          +0.145*[#   8]+
    |psi|^2 = 0.869

 k =   0.6000000000  0.0000000000  0.0000000000
==== e(   1) =    -4.32318 eV ==== 
     psi = 0.327*[#   1]+0.327*[#   5]+0.057*[#   2]+0.057*[#   3]+0.057*[#   4]+
          +0.057*[#   6]+0.057*[#   7]+0.057*[#   8]+
    |psi|^2 = 0.994
==== e(   2) =     1.67352 eV ==== 
     psi = 0.230*[#   1]+0.230*[#   5]+0.088*[#   2]+0.088*[#   3]+0.088*[#   4]+
          +0.088*[#   6]+0.088*[#   7]+0.088*[#   8]+
    |psi|^2 = 0.989
==== e(   3) =     3.82282 eV ==== 
     psi = 0.165*[#   2]+0.165*[#   3]+0.165*[#   4]+0.165*[#   6]+0.165*[#   7]+
          +0.165*[#   8]+
    |psi|^2 = 0.992
==== e(   4) =     3.82282 eV ==== 
     psi = 0.165*[#   2]+0.165*[#   3]+0.165*[#   4]+0.165*[#   6]+0.165*[#   7]+
          +0.165*[#   8]+
    |psi|^2 = 0.992
==== e(   5) =     6.89175 eV ==== 
     psi = 0.158*[#   1]+0.158*[#   5]+0.104*[#   2]+0.104*[#   3]+0.104*[#   4]+
          +0.104*[#   6]+0.104*[#   7]+0.104*[#   8]+
    |psi|^2 = 0.937
==== e(   6) =     8.44925 eV ==== 
     psi = 0.134*[#   1]+0.134*[#   5]+0.049*[#   2]+0.049*[#   3]+0.049*[#   4]+
          +0.049*[#   6]+0.049*[#   7]+0.049*[#   8]+
    |psi|^2 = 0.560
==== e(   7) =    12.70436 eV ==== 
     psi = 0.138*[#   2]+0.138*[#   3]+0.138*[#   4]+0.138*[#   6]+0.138*[#   7]+
          +0.138*[#   8]+
    |psi|^2 = 0.829
==== e(   8) =    12.70436 eV ==== 
     psi = 0.138*[#   2]+0.138*[#   3]+0.138*[#   4]+0.138*[#   6]+0.138*[#   7]+
          +0.138*[#   8]+
    |psi|^2 = 0.829

 k =   0.7000000000  0.0000000000  0.0000000000
==== e(   1) =    -3.77581 eV ==== 
     psi = 0.309*[#   1]+0.309*[#   5]+0.063*[#   2]+0.063*[#   3]+0.063*[#   4]+
          +0.063*[#   6]+0.063*[#   7]+0.063*[#   8]+
    |psi|^2 = 0.994
==== e(   2) =     0.78534 eV ==== 
     psi = 0.244*[#   1]+0.244*[#   5]+0.084*[#   2]+0.084*[#   3]+0.084*[#   4]+
          +0.084*[#   6]+0.084*[#   7]+0.084*[#   8]+
    |psi|^2 = 0.991
==== e(   3) =     3.55127 eV ==== 
     psi = 0.166*[#   2]+0.166*[#   3]+0.166*[#   4]+0.166*[#   6]+0.166*[#   7]+
          +0.166*[#   8]+
    |psi|^2 = 0.993
==== e(   4) =     3.55127 eV ==== 
     psi = 0.166*[#   2]+0.166*[#   3]+0.166*[#   4]+0.166*[#   6]+0.166*[#   7]+
          +0.166*[#   8]+
    |psi|^2 = 0.993
==== e(   5) =     6.70449 eV ==== 
     psi = 0.171*[#   1]+0.171*[#   5]+0.097*[#   2]+0.097*[#   3]+0.097*[#   4]+
          +0.097*[#   6]+0.097*[#   7]+0.097*[#   8]+
    |psi|^2 = 0.924
==== e(   6) =     7.83142 eV ==== 
     psi = 0.145*[#   1]+0.145*[#   5]+0.057*[#   2]+0.057*[#   3]+0.057*[#   4]+
          +0.057*[#   6]+0.057*[#   7]+0.057*[#   8]+
    |psi|^2 = 0.633
==== e(   7) =    13.61700 eV ==== 
     psi = 0.131*[#   2]+0.131*[#   3]+0.131*[#   4]+0.131*[#   6]+0.131*[#   7]+
          +0.131*[#   8]+
    |psi|^2 = 0.784
==== e(   8) =    13.61700 eV ==== 
     psi = 0.131*[#   2]+0.131*[#   3]+0.131*[#   4]+0.131*[#   6]+0.131*[#   7]+
          +0.131*[#   8]+
    |psi|^2 = 0.784

 k =   0.8000000000  0.0000000000  0.0000000000
==== e(   1) =    -3.15615 eV ==== 
     psi = 0.296*[#   1]+0.296*[#   5]+0.067*[#   2]+0.067*[#   3]+0.067*[#   4]+
          +0.067*[#   6]+0.067*[#   7]+0.067*[#   8]+
    |psi|^2 = 0.993
==== e(   2) =    -0.08356 eV ==== 
     psi = 0.256*[#   1]+0.256*[#   5]+0.080*[#   2]+0.080*[#   3]+0.080*[#   4]+
          +0.080*[#   6]+0.080*[#   7]+0.080*[#   8]+
    |psi|^2 = 0.992
==== e(   3) =     3.35484 eV ==== 
     psi = 0.166*[#   2]+0.166*[#   3]+0.166*[#   4]+0.166*[#   6]+0.166*[#   7]+
          +0.166*[#   8]+
    |psi|^2 = 0.994
==== e(   4) =     3.35484 eV ==== 
     psi = 0.166*[#   2]+0.166*[#   3]+0.166*[#   4]+0.166*[#   6]+0.166*[#   7]+
          +0.166*[#   8]+
    |psi|^2 = 0.994
==== e(   5) =     6.60825 eV ==== 
     psi = 0.177*[#   1]+0.177*[#   5]+0.092*[#   2]+0.092*[#   3]+0.092*[#   4]+
          +0.092*[#   6]+0.092*[#   7]+0.092*[#   8]+
    |psi|^2 = 0.905
==== e(   6) =     7.33989 eV ==== 
     psi = 0.158*[#   1]+0.158*[#   5]+0.066*[#   2]+0.066*[#   3]+0.066*[#   4]+
          +0.066*[#   6]+0.066*[#   7]+0.066*[#   8]+
    |psi|^2 = 0.711
==== e(   7) =    14.54726 eV ==== 
     psi = 0.124*[#   2]+0.124*[#   3]+0.124*[#   4]+0.124*[#   6]+0.124*[#   7]+
          +0.124*[#   8]+
    |psi|^2 = 0.745
==== e(   8) =    14.54726 eV ==== 
     psi = 0.124*[#   2]+0.124*[#   3]+0.124*[#   4]+0.124*[#   6]+0.124*[#   7]+
          +0.124*[#   8]+
    |psi|^2 = 0.745

 k =   0.9000000000  0.0000000000  0.0000000000
==== e(   1) =    -2.47023 eV ==== 
     psi = 0.285*[#   1]+0.285*[#   5]+0.071*[#   2]+0.071*[#   3]+0.071*[#   4]+
          +0.071*[#   6]+0.071*[#   7]+0.071*[#   8]+
    |psi|^2 = 0.993
==== e(   2) =    -0.92472 eV ==== 
     psi = 0.266*[#   1]+0.266*[#   5]+0.077*[#   2]+0.077*[#   3]+0.077*[#   4]+
          +0.077*[#   6]+0.077*[#   7]+0.077*[#   8]+
    |psi|^2 = 0.992
==== e(   3) =     3.23601 eV ==== 
     psi = 0.166*[#   2]+0.166*[#   3]+0.166*[#   4]+0.166*[#   6]+0.166*[#   7]+
          +0.166*[#   8]+
    |psi|^2 = 0.994
==== e(   4) =     3.23601 eV ==== 
     psi = 0.166*[#   2]+0.166*[#   3]+0.166*[#   4]+0.166*[#   6]+0.166*[#   7]+
          +0.166*[#   8]+
    |psi|^2 = 0.994
==== e(   5) =     6.61543 eV ==== 
     psi = 0.179*[#   1]+0.179*[#   5]+0.086*[#   2]+0.086*[#   3]+0.086*[#   4]+
          +0.086*[#   6]+0.086*[#   7]+0.086*[#   8]+
    |psi|^2 = 0.877
==== e(   6) =     6.97410 eV ==== 
     psi = 0.169*[#   1]+0.169*[#   5]+0.074*[#   2]+0.074*[#   3]+0.074*[#   4]+
          +0.074*[#   6]+0.074*[#   7]+0.074*[#   8]+
    |psi|^2 = 0.781
==== e(   7) =    15.46484 eV ==== 
     psi = 0.126*[#   2]+0.126*[#   3]+0.126*[#   4]+0.126*[#   6]+0.126*[#   7]+
          +0.126*[#   8]+
    |psi|^2 = 0.754
==== e(   8) =    15.46484 eV ==== 
     psi = 0.126*[#   2]+0.126*[#   3]+0.126*[#   4]+0.126*[#   6]+0.126*[#   7]+
          +0.126*[#   8]+
    |psi|^2 = 0.754

 k =   1.0000000000  0.0000000000  0.0000000000
==== e(   1) =    -1.72344 eV ==== 
     psi = 0.275*[#   1]+0.275*[#   5]+0.074*[#   2]+0.074*[#   3]+0.074*[#   4]+
          +0.074*[#   6]+0.074*[#   7]+0.074*[#   8]+
    |psi|^2 = 0.993
==== e(   2) =    -1.72344 eV ==== 
     psi = 0.275*[#   1]+0.275*[#   5]+0.074*[#   2]+0.074*[#   3]+0.074*[#   4]+
          +0.074*[#   6]+0.074*[#   7]+0.074*[#   8]+
    |psi|^2 = 0.993
==== e(   3) =     3.19615 eV ==== 
     psi = 0.166*[#   2]+0.166*[#   3]+0.166*[#   4]+0.166*[#   6]+0.166*[#   7]+
          +0.166*[#   8]+
    |psi|^2 = 0.994
==== e(   4) =     3.19615 eV ==== 
     psi = 0.166*[#   2]+0.166*[#   3]+0.166*[#   4]+0.166*[#   6]+0.166*[#   7]+
          +0.166*[#   8]+
    |psi|^2 = 0.994
==== e(   5) =     6.73633 eV ==== 
     psi = 0.176*[#   1]+0.176*[#   5]+0.081*[#   2]+0.081*[#   3]+0.081*[#   4]+
          +0.081*[#   6]+0.081*[#   7]+0.081*[#   8]+
    |psi|^2 = 0.836
==== e(   6) =     6.73633 eV ==== 
     psi = 0.176*[#   1]+0.176*[#   5]+0.081*[#   2]+0.081*[#   3]+0.081*[#   4]+
          +0.081*[#   6]+0.081*[#   7]+0.081*[#   8]+
    |psi|^2 = 0.836
==== e(   7) =    16.07298 eV ==== 
     psi = 0.154*[#   2]+0.154*[#   3]+0.154*[#   4]+0.154*[#   6]+0.154*[#   7]+
          +0.154*[#   8]+
    |psi|^2 = 0.926
==== e(   8) =    16.07298 eV ==== 
     psi = 0.154*[#   2]+0.154*[#   3]+0.154*[#   4]+0.154*[#   6]+0.154*[#   7]+
          +0.154*[#   8]+
    |psi|^2 = 0.926

 k =   1.0000000000  0.0500000000  0.0000000000
==== e(   1) =    -1.71963 eV ==== 
     psi = 0.275*[#   1]+0.275*[#   5]+0.074*[#   2]+0.074*[#   3]+0.074*[#   4]+
          +0.074*[#   6]+0.074*[#   7]+0.074*[#   8]+
    |psi|^2 = 0.993
==== e(   2) =    -1.71963 eV ==== 
     psi = 0.275*[#   1]+0.275*[#   5]+0.074*[#   2]+0.074*[#   3]+0.074*[#   4]+
          +0.074*[#   6]+0.074*[#   7]+0.074*[#   8]+
    |psi|^2 = 0.993
==== e(   3) =     3.16240 eV ==== 
     psi = 0.165*[#   2]+0.165*[#   3]+0.165*[#   4]+0.165*[#   6]+0.165*[#   7]+
          +0.165*[#   8]+0.001*[#   1]+0.001*[#   5]+
    |psi|^2 = 0.994
==== e(   4) =     3.16240 eV ==== 
     psi = 0.165*[#   2]+0.165*[#   3]+0.165*[#   4]+0.165*[#   6]+0.165*[#   7]+
          +0.165*[#   8]+0.001*[#   1]+0.001*[#   5]+
    |psi|^2 = 0.994
==== e(   5) =     6.79755 eV ==== 
     psi = 0.174*[#   1]+0.174*[#   5]+0.081*[#   2]+0.081*[#   3]+0.081*[#   4]+
          +0.081*[#   6]+0.081*[#   7]+0.081*[#   8]+
    |psi|^2 = 0.834
==== e(   6) =     6.79755 eV ==== 
     psi = 0.174*[#   1]+0.174*[#   5]+0.081*[#   2]+0.081*[#   3]+0.081*[#   4]+
          +0.081*[#   6]+0.081*[#   7]+0.081*[#   8]+
    |psi|^2 = 0.834
==== e(   7) =    15.97593 eV ==== 
     psi = 0.149*[#   2]+0.149*[#   3]+0.149*[#   4]+0.149*[#   6]+0.149*[#   7]+
          +0.149*[#   8]+0.002*[#   1]+0.002*[#   5]+
    |psi|^2 = 0.897
==== e(   8) =    15.97593 eV ==== 
     psi = 0.149*[#   2]+0.149*[#   3]+0.149*[#   4]+0.149*[#   6]+0.149*[#   7]+
          +0.149*[#   8]+0.002*[#   1]+0.002*[#   5]+
    |psi|^2 = 0.897

 k =   1.0000000000  0.1000000000  0.0000000000
==== e(   1) =    -1.70875 eV ==== 
     psi = 0.277*[#   1]+0.277*[#   5]+0.073*[#   2]+0.073*[#   3]+0.073*[#   4]+
          +0.073*[#   6]+0.073*[#   7]+0.073*[#   8]+
    |psi|^2 = 0.993
==== e(   2) =    -1.70875 eV ==== 
     psi = 0.277*[#   1]+0.277*[#   5]+0.073*[#   2]+0.073*[#   3]+0.073*[#   4]+
          +0.073*[#   6]+0.073*[#   7]+0.073*[#   8]+
    |psi|^2 = 0.993
==== e(   3) =     3.06868 eV ==== 
     psi = 0.164*[#   2]+0.164*[#   3]+0.164*[#   4]+0.164*[#   6]+0.164*[#   7]+
          +0.164*[#   8]+0.004*[#   1]+0.004*[#   5]+
    |psi|^2 = 0.994
==== e(   4) =     3.06868 eV ==== 
     psi = 0.164*[#   2]+0.164*[#   3]+0.164*[#   4]+0.164*[#   6]+0.164*[#   7]+
          +0.164*[#   8]+0.004*[#   1]+0.004*[#   5]+
    |psi|^2 = 0.994
==== e(   5) =     6.97338 eV ==== 
     psi = 0.167*[#   1]+0.167*[#   5]+0.082*[#   2]+0.082*[#   3]+0.082*[#   4]+
          +0.082*[#   6]+0.082*[#   7]+0.082*[#   8]+
    |psi|^2 = 0.827
==== e(   6) =     6.97338 eV ==== 
     psi = 0.167*[#   1]+0.167*[#   5]+0.082*[#   2]+0.082*[#   3]+0.082*[#   4]+
          +0.082*[#   6]+0.082*[#   7]+0.082*[#   8]+
    |psi|^2 = 0.827
==== e(   7) =    15.64852 eV ==== 
     psi = 0.126*[#   2]+0.126*[#   3]+0.126*[#   4]+0.126*[#   6]+0.126*[#   7]+
          +0.126*[#   8]+0.010*[#   1]+0.010*[#   5]+
    |psi|^2 = 0.772
==== e(   8) =    15.64852 eV ==== 
     psi = 0.126*[#   2]+0.126*[#   3]+0.126*[#   4]+0.126*[#   6]+0.126*[#   7]+
          +0.126*[#   8]+0.010*[#   1]+0.010*[#   5]+
    |psi|^2 = 0.772

 k =   1.0000000000  0.1500000000  0.0000000000
==== e(   1) =    -1.69156 eV ==== 
     psi = 0.278*[#   1]+0.278*[#   5]+0.073*[#   2]+0.073*[#   3]+0.073*[#   4]+
          +0.073*[#   6]+0.073*[#   7]+0.073*[#   8]+
    |psi|^2 = 0.993
==== e(   2) =    -1.69156 eV ==== 
     psi = 0.278*[#   1]+0.278*[#   5]+0.073*[#   2]+0.073*[#   3]+0.073*[#   4]+
          +0.073*[#   6]+0.073*[#   7]+0.073*[#   8]+
    |psi|^2 = 0.993
==== e(   3) =     2.93364 eV ==== 
     psi = 0.164*[#   2]+0.164*[#   3]+0.164*[#   4]+0.164*[#   6]+0.164*[#   7]+
          +0.164*[#   8]+0.006*[#   1]+0.006*[#   5]+
    |psi|^2 = 0.993
==== e(   4) =     2.93364 eV ==== 
     psi = 0.164*[#   2]+0.164*[#   3]+0.164*[#   4]+0.164*[#   6]+0.164*[#   7]+
          +0.164*[#   8]+0.006*[#   1]+0.006*[#   5]+
    |psi|^2 = 0.993
==== e(   5) =     7.24646 eV ==== 
     psi = 0.157*[#   1]+0.157*[#   5]+0.084*[#   2]+0.084*[#   3]+0.084*[#   4]+
          +0.084*[#   6]+0.084*[#   7]+0.084*[#   8]+
    |psi|^2 = 0.816
==== e(   6) =     7.24646 eV ==== 
     psi = 0.157*[#   1]+0.157*[#   5]+0.084*[#   2]+0.084*[#   3]+0.084*[#   4]+
          +0.084*[#   6]+0.084*[#   7]+0.084*[#   8]+
    |psi|^2 = 0.816
==== e(   7) =    15.12876 eV ==== 
     psi = 0.102*[#   2]+0.102*[#   3]+0.102*[#   4]+0.102*[#   6]+0.102*[#   7]+
          +0.102*[#   8]+0.019*[#   1]+0.019*[#   5]+
    |psi|^2 = 0.650
==== e(   8) =    15.12876 eV ==== 
     psi = 0.102*[#   2]+0.102*[#   3]+0.102*[#   4]+0.102*[#   6]+0.102*[#   7]+
          +0.102*[#   8]+0.019*[#   1]+0.019*[#   5]+
    |psi|^2 = 0.650

 k =   1.0000000000  0.2000000000  0.0000000000
==== e(   1) =    -1.66880 eV ==== 
     psi = 0.281*[#   1]+0.281*[#   5]+0.072*[#   2]+0.072*[#   3]+0.072*[#   4]+
          +0.072*[#   6]+0.072*[#   7]+0.072*[#   8]+
    |psi|^2 = 0.993
==== e(   2) =    -1.66880 eV ==== 
     psi = 0.281*[#   1]+0.281*[#   5]+0.072*[#   2]+0.072*[#   3]+0.072*[#   4]+
          +0.072*[#   6]+0.072*[#   7]+0.072*[#   8]+
    |psi|^2 = 0.993
==== e(   3) =     2.77827 eV ==== 
     psi = 0.163*[#   2]+0.163*[#   3]+0.163*[#   4]+0.163*[#   6]+0.163*[#   7]+
          +0.163*[#   8]+0.007*[#   1]+0.007*[#   5]+
    |psi|^2 = 0.993
==== e(   4) =     2.77827 eV ==== 
     psi = 0.163*[#   2]+0.163*[#   3]+0.163*[#   4]+0.163*[#   6]+0.163*[#   7]+
          +0.163*[#   8]+0.007*[#   1]+0.007*[#   5]+
    |psi|^2 = 0.993
==== e(   5) =     7.59646 eV ==== 
     psi = 0.146*[#   1]+0.146*[#   5]+0.084*[#   2]+0.084*[#   3]+0.084*[#   4]+
          +0.084*[#   6]+0.084*[#   7]+0.084*[#   8]+
    |psi|^2 = 0.799
==== e(   6) =     7.59646 eV ==== 
     psi = 0.146*[#   1]+0.146*[#   5]+0.084*[#   2]+0.084*[#   3]+0.084*[#   4]+
          +0.084*[#   6]+0.084*[#   7]+0.084*[#   8]+
    |psi|^2 = 0.799
==== e(   7) =    14.51901 eV ==== 
     psi = 0.089*[#   2]+0.089*[#   3]+0.089*[#   4]+0.089*[#   6]+0.089*[#   7]+
          +0.089*[#   8]+0.028*[#   1]+0.028*[#   5]+
    |psi|^2 = 0.592
==== e(   8) =    14.51901 eV ==== 
     psi = 0.089*[#   2]+0.089*[#   3]+0.089*[#   4]+0.089*[#   6]+0.089*[#   7]+
          +0.089*[#   8]+0.028*[#   1]+0.028*[#   5]+
    |psi|^2 = 0.592

 k =   1.0000000000  0.2500000000  0.0000000000
==== e(   1) =    -1.64350 eV ==== 
     psi = 0.283*[#   1]+0.283*[#   5]+0.071*[#   2]+0.071*[#   3]+0.071*[#   4]+
          +0.071*[#   6]+0.071*[#   7]+0.071*[#   8]+
    |psi|^2 = 0.994
==== e(   2) =    -1.64350 eV ==== 
     psi = 0.283*[#   1]+0.283*[#   5]+0.071*[#   2]+0.071*[#   3]+0.071*[#   4]+
          +0.071*[#   6]+0.071*[#   7]+0.071*[#   8]+
    |psi|^2 = 0.994
==== e(   3) =     2.62040 eV ==== 
     psi = 0.163*[#   2]+0.163*[#   3]+0.163*[#   4]+0.163*[#   6]+0.163*[#   7]+
          +0.163*[#   8]+0.007*[#   1]+0.007*[#   5]+
    |psi|^2 = 0.993
==== e(   4) =     2.62040 eV ==== 
     psi = 0.163*[#   2]+0.163*[#   3]+0.163*[#   4]+0.163*[#   6]+0.163*[#   7]+
          +0.163*[#   8]+0.007*[#   1]+0.007*[#   5]+
    |psi|^2 = 0.993
==== e(   5) =     8.00398 eV ==== 
     psi = 0.133*[#   1]+0.133*[#   5]+0.085*[#   2]+0.085*[#   3]+0.085*[#   4]+
          +0.085*[#   6]+0.085*[#   7]+0.085*[#   8]+
    |psi|^2 = 0.777
==== e(   6) =     8.00398 eV ==== 
     psi = 0.133*[#   1]+0.133*[#   5]+0.085*[#   2]+0.085*[#   3]+0.085*[#   4]+
          +0.085*[#   6]+0.085*[#   7]+0.085*[#   8]+
    |psi|^2 = 0.777
==== e(   7) =    13.87773 eV ==== 
     psi = 0.084*[#   2]+0.084*[#   3]+0.084*[#   4]+0.084*[#   6]+0.084*[#   7]+
          +0.084*[#   8]+0.038*[#   1]+0.038*[#   5]+
    |psi|^2 = 0.578
==== e(   8) =    13.87773 eV ==== 
     psi = 0.084*[#   2]+0.084*[#   3]+0.084*[#   4]+0.084*[#   6]+0.084*[#   7]+
          +0.084*[#   8]+0.038*[#   1]+0.038*[#   5]+
    |psi|^2 = 0.578

 k =   1.0000000000  0.3000000000  0.0000000000
==== e(   1) =    -1.61713 eV ==== 
     psi = 0.286*[#   1]+0.286*[#   5]+0.070*[#   2]+0.070*[#   3]+0.070*[#   4]+
          +0.070*[#   6]+0.070*[#   7]+0.070*[#   8]+
    |psi|^2 = 0.994
==== e(   2) =    -1.61713 eV ==== 
     psi = 0.286*[#   1]+0.286*[#   5]+0.070*[#   2]+0.070*[#   3]+0.070*[#   4]+
          +0.070*[#   6]+0.070*[#   7]+0.070*[#   8]+
    |psi|^2 = 0.994
==== e(   3) =     2.47397 eV ==== 
     psi = 0.164*[#   2]+0.164*[#   3]+0.164*[#   4]+0.164*[#   6]+0.164*[#   7]+
          +0.164*[#   8]+0.006*[#   1]+0.006*[#   5]+
    |psi|^2 = 0.994
==== e(   4) =     2.47397 eV ==== 
     psi = 0.164*[#   2]+0.164*[#   3]+0.164*[#   4]+0.164*[#   6]+0.164*[#   7]+
          +0.164*[#   8]+0.006*[#   1]+0.006*[#   5]+
    |psi|^2 = 0.994
==== e(   5) =     8.46006 eV ==== 
     psi = 0.119*[#   1]+0.119*[#   5]+0.085*[#   2]+0.085*[#   3]+0.085*[#   4]+
          +0.085*[#   6]+0.085*[#   7]+0.085*[#   8]+
    |psi|^2 = 0.749
==== e(   6) =     8.46006 eV ==== 
     psi = 0.119*[#   1]+0.119*[#   5]+0.085*[#   2]+0.085*[#   3]+0.085*[#   4]+
          +0.085*[#   6]+0.085*[#   7]+0.085*[#   8]+
    |psi|^2 = 0.749
==== e(   7) =    13.22829 eV ==== 
     psi = 0.081*[#   2]+0.081*[#   3]+0.081*[#   4]+0.081*[#   6]+0.081*[#   7]+
          +0.081*[#   8]+0.050*[#   1]+0.050*[#   5]+
    |psi|^2 = 0.588
==== e(   8) =    13.22829 eV ==== 
     psi = 0.081*[#   2]+0.081*[#   3]+0.081*[#   4]+0.081*[#   6]+0.081*[#   7]+
          +0.081*[#   8]+0.050*[#   1]+0.050*[#   5]+
    |psi|^2 = 0.588

 k =   1.0000000000  0.3500000000  0.0000000000
==== e(   1) =    -1.59185 eV ==== 
     psi = 0.289*[#   1]+0.289*[#   5]+0.069*[#   2]+0.069*[#   3]+0.069*[#   4]+
          +0.069*[#   6]+0.069*[#   7]+0.069*[#   8]+
    |psi|^2 = 0.994
==== e(   2) =    -1.59185 eV ==== 
     psi = 0.289*[#   1]+0.289*[#   5]+0.069*[#   2]+0.069*[#   3]+0.069*[#   4]+
          +0.069*[#   6]+0.069*[#   7]+0.069*[#   8]+
    |psi|^2 = 0.994
==== e(   3) =     2.34982 eV ==== 
     psi = 0.164*[#   2]+0.164*[#   3]+0.164*[#   4]+0.164*[#   6]+0.164*[#   7]+
          +0.164*[#   8]+0.004*[#   1]+0.004*[#   5]+
    |psi|^2 = 0.994
==== e(   4) =     2.34982 eV ==== 
     psi = 0.164*[#   2]+0.164*[#   3]+0.164*[#   4]+0.164*[#   6]+0.164*[#   7]+
          +0.164*[#   8]+0.004*[#   1]+0.004*[#   5]+
    |psi|^2 = 0.994
==== e(   5) =     8.95378 eV ==== 
     psi = 0.103*[#   1]+0.103*[#   5]+0.085*[#   2]+0.085*[#   3]+0.085*[#   4]+
          +0.085*[#   6]+0.085*[#   7]+0.085*[#   8]+
    |psi|^2 = 0.714
==== e(   6) =     8.95378 eV ==== 
     psi = 0.103*[#   1]+0.103*[#   5]+0.085*[#   2]+0.085*[#   3]+0.085*[#   4]+
          +0.085*[#   6]+0.085*[#   7]+0.085*[#   8]+
    |psi|^2 = 0.714
==== e(   7) =    12.58925 eV ==== 
     psi = 0.081*[#   2]+0.081*[#   3]+0.081*[#   4]+0.081*[#   6]+0.081*[#   7]+
          +0.081*[#   8]+0.064*[#   1]+0.064*[#   5]+
    |psi|^2 = 0.614
==== e(   8) =    12.58925 eV ==== 
     psi = 0.081*[#   2]+0.081*[#   3]+0.081*[#   4]+0.081*[#   6]+0.081*[#   7]+
          +0.081*[#   8]+0.064*[#   1]+0.064*[#   5]+
    |psi|^2 = 0.614

 k =   1.0000000000  0.4500000000  0.0000000000
==== e(   1) =    -1.55970 eV ==== 
     psi = 0.293*[#   1]+0.293*[#   5]+0.068*[#   2]+0.068*[#   3]+0.068*[#   4]+
          +0.068*[#   6]+0.068*[#   7]+0.068*[#   8]+
    |psi|^2 = 0.994
==== e(   2) =    -1.55970 eV ==== 
     psi = 0.293*[#   1]+0.293*[#   5]+0.068*[#   2]+0.068*[#   3]+0.068*[#   4]+
          +0.068*[#   6]+0.068*[#   7]+0.068*[#   8]+
    |psi|^2 = 0.994
==== e(   3) =     2.19602 eV ==== 
     psi = 0.165*[#   2]+0.165*[#   3]+0.165*[#   4]+0.165*[#   6]+0.165*[#   7]+
          +0.165*[#   8]+
    |psi|^2 = 0.994
==== e(   4) =     2.19602 eV ==== 
     psi = 0.165*[#   2]+0.165*[#   3]+0.165*[#   4]+0.165*[#   6]+0.165*[#   7]+
          +0.165*[#   8]+
    |psi|^2 = 0.994
==== e(   5) =     9.98065 eV ==== 
     psi = 0.082*[#   2]+0.082*[#   3]+0.082*[#   4]+0.082*[#   6]+0.082*[#   7]+
          +0.082*[#   8]+0.050*[#   1]+0.050*[#   5]+
    |psi|^2 = 0.593
==== e(   6) =     9.98065 eV ==== 
     psi = 0.082*[#   2]+0.082*[#   3]+0.082*[#   4]+0.082*[#   6]+0.082*[#   7]+
          +0.082*[#   8]+0.050*[#   1]+0.050*[#   5]+
    |psi|^2 = 0.593
==== e(   7) =    11.38810 eV ==== 
     psi = 0.115*[#   1]+0.115*[#   5]+0.083*[#   2]+0.083*[#   3]+0.083*[#   4]+
          +0.083*[#   6]+0.083*[#   7]+0.083*[#   8]+
    |psi|^2 = 0.728
==== e(   8) =    11.38810 eV ==== 
     psi = 0.115*[#   1]+0.115*[#   5]+0.083*[#   2]+0.083*[#   3]+0.083*[#   4]+
          +0.083*[#   6]+0.083*[#   7]+0.083*[#   8]+
    |psi|^2 = 0.728

 k =   1.0000000000  0.5000000000  0.0000000000
==== e(   1) =    -1.55509 eV ==== 
     psi = 0.294*[#   1]+0.294*[#   5]+0.068*[#   2]+0.068*[#   3]+0.068*[#   4]+
          +0.068*[#   6]+0.068*[#   7]+0.068*[#   8]+
    |psi|^2 = 0.995
==== e(   2) =    -1.55509 eV ==== 
     psi = 0.294*[#   1]+0.294*[#   5]+0.068*[#   2]+0.068*[#   3]+0.068*[#   4]+
          +0.068*[#   6]+0.068*[#   7]+0.068*[#   8]+
    |psi|^2 = 0.995
==== e(   3) =     2.17600 eV ==== 
     psi = 0.166*[#   2]+0.166*[#   3]+0.166*[#   4]+0.166*[#   6]+0.166*[#   7]+
          +0.166*[#   8]+
    |psi|^2 = 0.994
==== e(   4) =     2.17600 eV ==== 
     psi = 0.166*[#   2]+0.166*[#   3]+0.166*[#   4]+0.166*[#   6]+0.166*[#   7]+
          +0.166*[#   8]+
    |psi|^2 = 0.994
==== e(   5) =    10.30289 eV ==== 
     psi = 0.080*[#   2]+0.080*[#   3]+0.080*[#   4]+0.080*[#   6]+0.080*[#   7]+
          +0.080*[#   8]+
    |psi|^2 = 0.482
==== e(   6) =    10.30289 eV ==== 
     psi = 0.080*[#   2]+0.080*[#   3]+0.080*[#   4]+0.080*[#   6]+0.080*[#   7]+
          +0.080*[#   8]+
    |psi|^2 = 0.482
==== e(   7) =    11.04467 eV ==== 
     psi = 0.165*[#   1]+0.165*[#   5]+0.085*[#   2]+0.085*[#   3]+0.085*[#   4]+
          +0.085*[#   6]+0.085*[#   7]+0.085*[#   8]+
    |psi|^2 = 0.840
==== e(   8) =    11.04467 eV ==== 
     psi = 0.165*[#   1]+0.165*[#   5]+0.085*[#   2]+0.085*[#   3]+0.085*[#   4]+
          +0.085*[#   6]+0.085*[#   7]+0.085*[#   8]+
    |psi|^2 = 0.840

 k =   0.9500000000  0.5000000000  0.0500000000
==== e(   1) =    -1.88031 eV ==== 
     psi = 0.304*[#   1]+0.304*[#   5]+0.064*[#   2]+0.064*[#   3]+0.064*[#   4]+
          +0.064*[#   6]+0.064*[#   7]+0.064*[#   8]+
    |psi|^2 = 0.995
==== e(   2) =    -1.24311 eV ==== 
     psi = 0.281*[#   1]+0.281*[#   5]+0.072*[#   2]+0.072*[#   3]+0.072*[#   4]+
          +0.072*[#   6]+0.072*[#   7]+0.072*[#   8]+
    |psi|^2 = 0.994
==== e(   3) =     1.97410 eV ==== 
     psi = 0.165*[#   2]+0.165*[#   3]+0.165*[#   4]+0.165*[#   6]+0.165*[#   7]+
          +0.165*[#   8]+0.002*[#   1]+0.002*[#   5]+
    |psi|^2 = 0.994
==== e(   4) =     2.45844 eV ==== 
     psi = 0.165*[#   2]+0.165*[#   3]+0.165*[#   4]+0.165*[#   6]+0.165*[#   7]+
          +0.165*[#   8]+
    |psi|^2 = 0.994
==== e(   5) =    10.00303 eV ==== 
     psi = 0.088*[#   2]+0.088*[#   3]+0.088*[#   4]+0.088*[#   6]+0.088*[#   7]+
          +0.088*[#   8]+0.010*[#   1]+0.010*[#   5]+
    |psi|^2 = 0.548
==== e(   6) =    10.32600 eV ==== 
     psi = 0.084*[#   2]+0.084*[#   3]+0.084*[#   4]+0.084*[#   6]+0.084*[#   7]+
          +0.084*[#   8]+0.061*[#   1]+0.061*[#   5]+
    |psi|^2 = 0.627
==== e(   7) =    11.04083 eV ==== 
     psi = 0.110*[#   1]+0.110*[#   5]+0.072*[#   2]+0.072*[#   3]+0.072*[#   4]+
          +0.072*[#   6]+0.072*[#   7]+0.072*[#   8]+
    |psi|^2 = 0.652
==== e(   8) =    11.41946 eV ==== 
     psi = 0.147*[#   1]+0.147*[#   5]+0.085*[#   2]+0.085*[#   3]+0.085*[#   4]+
          +0.085*[#   6]+0.085*[#   7]+0.085*[#   8]+
    |psi|^2 = 0.801

 k =   0.9000000000  0.5000000000  0.1000000000
==== e(   1) =    -2.19759 eV ==== 
     psi = 0.314*[#   1]+0.314*[#   5]+0.061*[#   2]+0.061*[#   3]+0.061*[#   4]+
          +0.061*[#   6]+0.061*[#   7]+0.061*[#   8]+
    |psi|^2 = 0.995
==== e(   2) =    -0.98042 eV ==== 
     psi = 0.261*[#   1]+0.261*[#   5]+0.079*[#   2]+0.079*[#   3]+0.079*[#   4]+
          +0.079*[#   6]+0.079*[#   7]+0.079*[#   8]+
    |psi|^2 = 0.994
==== e(   3) =     1.88969 eV ==== 
     psi = 0.162*[#   2]+0.162*[#   3]+0.162*[#   4]+0.162*[#   6]+0.162*[#   7]+
          +0.162*[#   8]+0.010*[#   1]+0.010*[#   5]+
    |psi|^2 = 0.994
==== e(   4) =     2.79238 eV ==== 
     psi = 0.165*[#   2]+0.165*[#   3]+0.165*[#   4]+0.165*[#   6]+0.165*[#   7]+
          +0.165*[#   8]+0.002*[#   1]+0.002*[#   5]+
    |psi|^2 = 0.993
==== e(   5) =     9.70476 eV ==== 
     psi = 0.097*[#   2]+0.097*[#   3]+0.097*[#   4]+0.097*[#   6]+0.097*[#   7]+
          +0.097*[#   8]+0.015*[#   1]+0.015*[#   5]+
    |psi|^2 = 0.609
==== e(   6) =    10.02899 eV ==== 
     psi = 0.113*[#   1]+0.113*[#   5]+0.088*[#   2]+0.088*[#   3]+0.088*[#   4]+
          +0.088*[#   6]+0.088*[#   7]+0.088*[#   8]+
    |psi|^2 = 0.752
==== e(   7) =    11.43885 eV ==== 
     psi = 0.063*[#   1]+0.063*[#   5]+0.058*[#   2]+0.058*[#   3]+0.058*[#   4]+
          +0.058*[#   6]+0.058*[#   7]+0.058*[#   8]+
    |psi|^2 = 0.475
==== e(   8) =    11.87803 eV ==== 
     psi = 0.130*[#   1]+0.130*[#   5]+0.082*[#   2]+0.082*[#   3]+0.082*[#   4]+
          +0.082*[#   6]+0.082*[#   7]+0.082*[#   8]+
    |psi|^2 = 0.753

 k =   0.8500000000  0.5000000000  0.1500000000
==== e(   1) =    -2.49320 eV ==== 
     psi = 0.324*[#   1]+0.324*[#   5]+0.058*[#   2]+0.058*[#   3]+0.058*[#   4]+
          +0.058*[#   6]+0.058*[#   7]+0.058*[#   8]+
    |psi|^2 = 0.995
==== e(   2) =    -0.80011 eV ==== 
     psi = 0.231*[#   1]+0.231*[#   5]+0.088*[#   2]+0.088*[#   3]+0.088*[#   4]+
          +0.088*[#   6]+0.088*[#   7]+0.088*[#   8]+
    |psi|^2 = 0.993
==== e(   3) =     1.96195 eV ==== 
     psi = 0.157*[#   2]+0.157*[#   3]+0.157*[#   4]+0.157*[#   6]+0.157*[#   7]+
          +0.157*[#   8]+0.027*[#   1]+0.027*[#   5]+
    |psi|^2 = 0.993
==== e(   4) =     3.15663 eV ==== 
     psi = 0.164*[#   2]+0.164*[#   3]+0.164*[#   4]+0.164*[#   6]+0.164*[#   7]+
          +0.164*[#   8]+0.003*[#   1]+0.003*[#   5]+
    |psi|^2 = 0.992
==== e(   5) =     9.46104 eV ==== 
     psi = 0.104*[#   2]+0.104*[#   3]+0.104*[#   4]+0.104*[#   6]+0.104*[#   7]+
          +0.104*[#   8]+0.016*[#   1]+0.016*[#   5]+
    |psi|^2 = 0.655
==== e(   6) =     9.70514 eV ==== 
     psi = 0.135*[#   1]+0.135*[#   5]+0.088*[#   2]+0.088*[#   3]+0.088*[#   4]+
          +0.088*[#   6]+0.088*[#   7]+0.088*[#   8]+
    |psi|^2 = 0.799
==== e(   7) =    11.95187 eV ==== 
     psi = 0.047*[#   2]+0.047*[#   3]+0.047*[#   4]+0.047*[#   6]+0.047*[#   7]+
          +0.047*[#   8]+0.047*[#   1]+0.047*[#   5]+
    |psi|^2 = 0.375
==== e(   8) =    12.37833 eV ==== 
     psi = 0.117*[#   1]+0.117*[#   5]+0.079*[#   2]+0.079*[#   3]+0.079*[#   4]+
          +0.079*[#   6]+0.079*[#   7]+0.079*[#   8]+
    |psi|^2 = 0.707

 k =   0.8000000000  0.5000000000  0.2000000000
==== e(   1) =    -2.75791 eV ==== 
     psi = 0.335*[#   1]+0.335*[#   5]+0.054*[#   2]+0.054*[#   3]+0.054*[#   4]+
          +0.054*[#   6]+0.054*[#   7]+0.054*[#   8]+
    |psi|^2 = 0.996
==== e(   2) =    -0.72069 eV ==== 
     psi = 0.198*[#   1]+0.198*[#   5]+0.099*[#   2]+0.099*[#   3]+0.099*[#   4]+
          +0.099*[#   6]+0.099*[#   7]+0.099*[#   8]+
    |psi|^2 = 0.992
==== e(   3) =     2.20566 eV ==== 
     psi = 0.150*[#   2]+0.150*[#   3]+0.150*[#   4]+0.150*[#   6]+0.150*[#   7]+
          +0.150*[#   8]+0.048*[#   1]+0.048*[#   5]+
    |psi|^2 = 0.993
==== e(   4) =     3.52949 eV ==== 
     psi = 0.164*[#   2]+0.164*[#   3]+0.164*[#   4]+0.164*[#   6]+0.164*[#   7]+
          +0.164*[#   8]+0.003*[#   1]+0.003*[#   5]+
    |psi|^2 = 0.991
==== e(   5) =     9.28066 eV ==== 
     psi = 0.110*[#   2]+0.110*[#   3]+0.110*[#   4]+0.110*[#   6]+0.110*[#   7]+
          +0.110*[#   8]+0.015*[#   1]+0.015*[#   5]+
    |psi|^2 = 0.688
==== e(   6) =     9.39752 eV ==== 
     psi = 0.151*[#   1]+0.151*[#   5]+0.087*[#   2]+0.087*[#   3]+0.087*[#   4]+
          +0.087*[#   6]+0.087*[#   7]+0.087*[#   8]+
    |psi|^2 = 0.825
==== e(   7) =    12.52911 eV ==== 
     psi = 0.043*[#   2]+0.043*[#   3]+0.043*[#   4]+0.043*[#   6]+0.043*[#   7]+
          +0.043*[#   8]+0.041*[#   1]+0.041*[#   5]+
    |psi|^2 = 0.344
==== e(   8) =    12.89814 eV ==== 
     psi = 0.103*[#   1]+0.103*[#   5]+0.075*[#   2]+0.075*[#   3]+0.075*[#   4]+
          +0.075*[#   6]+0.075*[#   7]+0.075*[#   8]+
    |psi|^2 = 0.659

 k =   0.7500000000  0.5000000000  0.2500000000
==== e(   1) =    -2.98866 eV ==== 
     psi = 0.346*[#   1]+0.346*[#   5]+0.051*[#   2]+0.051*[#   3]+0.051*[#   4]+
          +0.051*[#   6]+0.051*[#   7]+0.051*[#   8]+
    |psi|^2 = 0.996
==== e(   2) =    -0.72262 eV ==== 
     psi = 0.168*[#   1]+0.168*[#   5]+0.109*[#   2]+0.109*[#   3]+0.109*[#   4]+
          +0.109*[#   6]+0.109*[#   7]+0.109*[#   8]+
    |psi|^2 = 0.990
==== e(   3) =     2.59586 eV ==== 
     psi = 0.144*[#   2]+0.144*[#   3]+0.144*[#   4]+0.144*[#   6]+0.144*[#   7]+
          +0.144*[#   8]+0.064*[#   1]+0.064*[#   5]+
    |psi|^2 = 0.993
==== e(   4) =     3.89073 eV ==== 
     psi = 0.164*[#   2]+0.164*[#   3]+0.164*[#   4]+0.164*[#   6]+0.164*[#   7]+
          +0.164*[#   8]+0.002*[#   1]+0.002*[#   5]+
    |psi|^2 = 0.990
==== e(   5) =     9.10633 eV ==== 
     psi = 0.168*[#   1]+0.168*[#   5]+0.085*[#   2]+0.085*[#   3]+0.085*[#   4]+
          +0.085*[#   6]+0.085*[#   7]+0.085*[#   8]+
    |psi|^2 = 0.844
==== e(   6) =     9.17402 eV ==== 
     psi = 0.114*[#   2]+0.114*[#   3]+0.114*[#   4]+0.114*[#   6]+0.114*[#   7]+
          +0.114*[#   8]+0.013*[#   1]+0.013*[#   5]+
    |psi|^2 = 0.712
==== e(   7) =    11.96593 eV ==== 
     psi = 0.100*[#   2]+0.100*[#   3]+0.100*[#   4]+0.100*[#   6]+0.100*[#   7]+
          +0.100*[#   8]+0.042*[#   1]+0.042*[#   5]+
    |psi|^2 = 0.687
==== e(   8) =    13.41277 eV ==== 
     psi = 0.090*[#   1]+0.090*[#   5]+0.072*[#   2]+0.072*[#   3]+0.072*[#   4]+
          +0.072*[#   6]+0.072*[#   7]+0.072*[#   8]+
    |psi|^2 = 0.609

 k =   0.7000000000  0.5000000000  0.3000000000
==== e(   1) =    -3.17820 eV ==== 
     psi = 0.357*[#   1]+0.357*[#   5]+0.047*[#   2]+0.047*[#   3]+0.047*[#   4]+
          +0.047*[#   6]+0.047*[#   7]+0.047*[#   8]+
    |psi|^2 = 0.996
==== e(   2) =    -0.76661 eV ==== 
     psi = 0.145*[#   1]+0.145*[#   5]+0.116*[#   2]+0.116*[#   3]+0.116*[#   4]+
          +0.116*[#   6]+0.116*[#   7]+0.116*[#   8]+
    |psi|^2 = 0.989
==== e(   3) =     3.09053 eV ==== 
     psi = 0.142*[#   2]+0.142*[#   3]+0.142*[#   4]+0.142*[#   6]+0.142*[#   7]+
          +0.142*[#   8]+0.071*[#   1]+0.071*[#   5]+
    |psi|^2 = 0.992
==== e(   4) =     4.21899 eV ==== 
     psi = 0.164*[#   2]+0.164*[#   3]+0.164*[#   4]+0.164*[#   6]+0.164*[#   7]+
          +0.164*[#   8]+0.001*[#   1]+0.001*[#   5]+
    |psi|^2 = 0.989
==== e(   5) =     8.82187 eV ==== 
     psi = 0.194*[#   1]+0.194*[#   5]+0.079*[#   2]+0.079*[#   3]+0.079*[#   4]+
          +0.079*[#   6]+0.079*[#   7]+0.079*[#   8]+
    |psi|^2 = 0.863
==== e(   6) =     9.14870 eV ==== 
     psi = 0.118*[#   2]+0.118*[#   3]+0.118*[#   4]+0.118*[#   6]+0.118*[#   7]+
          +0.118*[#   8]+0.010*[#   1]+0.010*[#   5]+
    |psi|^2 = 0.729
==== e(   7) =    11.08001 eV ==== 
     psi = 0.108*[#   2]+0.108*[#   3]+0.108*[#   4]+0.108*[#   6]+0.108*[#   7]+
          +0.108*[#   8]+0.038*[#   1]+0.038*[#   5]+
    |psi|^2 = 0.722
==== e(   8) =    13.86482 eV ==== 
     psi = 0.076*[#   1]+0.076*[#   5]+0.066*[#   2]+0.066*[#   3]+0.066*[#   4]+
          +0.066*[#   6]+0.066*[#   7]+0.066*[#   8]+
    |psi|^2 = 0.550

 k =   0.6500000000  0.5000000000  0.3500000000
==== e(   1) =    -3.33074 eV ==== 
     psi = 0.367*[#   1]+0.367*[#   5]+0.044*[#   2]+0.044*[#   3]+0.044*[#   4]+
          +0.044*[#   6]+0.044*[#   7]+0.044*[#   8]+
    |psi|^2 = 0.996
==== e(   2) =    -0.82465 eV ==== 
     psi = 0.130*[#   1]+0.130*[#   5]+0.121*[#   2]+0.121*[#   3]+0.121*[#   4]+
          +0.121*[#   6]+0.121*[#   7]+0.121*[#   8]+
    |psi|^2 = 0.988
==== e(   3) =     3.64323 eV ==== 
     psi = 0.143*[#   2]+0.143*[#   3]+0.143*[#   4]+0.143*[#   6]+0.143*[#   7]+
          +0.143*[#   8]+0.066*[#   1]+0.066*[#   5]+
    |psi|^2 = 0.990
==== e(   4) =     4.49253 eV ==== 
     psi = 0.165*[#   2]+0.165*[#   3]+0.165*[#   4]+0.165*[#   6]+0.165*[#   7]+
          +0.165*[#   8]+
    |psi|^2 = 0.989
==== e(   5) =     8.50825 eV ==== 
     psi = 0.232*[#   1]+0.232*[#   5]+0.070*[#   2]+0.070*[#   3]+0.070*[#   4]+
          +0.070*[#   6]+0.070*[#   7]+0.070*[#   8]+
    |psi|^2 = 0.883
==== e(   6) =     9.19266 eV ==== 
     psi = 0.122*[#   2]+0.122*[#   3]+0.122*[#   4]+0.122*[#   6]+0.122*[#   7]+
          +0.122*[#   8]+0.006*[#   1]+0.006*[#   5]+
    |psi|^2 = 0.743
==== e(   7) =    10.33207 eV ==== 
     psi = 0.117*[#   2]+0.117*[#   3]+0.117*[#   4]+0.117*[#   6]+0.117*[#   7]+
          +0.117*[#   8]+0.024*[#   1]+0.024*[#   5]+
    |psi|^2 = 0.748
==== e(   8) =    14.08516 eV ==== 
     psi = 0.056*[#   1]+0.056*[#   5]+0.054*[#   2]+0.054*[#   3]+0.054*[#   4]+
          +0.054*[#   6]+0.054*[#   7]+0.054*[#   8]+
    |psi|^2 = 0.437

 k =   0.6000000000  0.5000000000  0.4000000000
==== e(   1) =    -3.43891 eV ==== 
     psi = 0.375*[#   1]+0.375*[#   5]+0.041*[#   2]+0.041*[#   3]+0.041*[#   4]+
          +0.041*[#   6]+0.041*[#   7]+0.041*[#   8]+
    |psi|^2 = 0.996
==== e(   2) =    -0.87631 eV ==== 
     psi = 0.124*[#   2]+0.124*[#   3]+0.124*[#   4]+0.124*[#   6]+0.124*[#   7]+
          +0.124*[#   8]+0.121*[#   1]+0.121*[#   5]+
    |psi|^2 = 0.987
==== e(   3) =     4.19899 eV ==== 
     psi = 0.149*[#   2]+0.149*[#   3]+0.149*[#   4]+0.149*[#   6]+0.149*[#   7]+
          +0.149*[#   8]+0.049*[#   1]+0.049*[#   5]+
    |psi|^2 = 0.989
==== e(   4) =     4.69591 eV ==== 
     psi = 0.165*[#   2]+0.165*[#   3]+0.165*[#   4]+0.165*[#   6]+0.165*[#   7]+
          +0.165*[#   8]+
    |psi|^2 = 0.988
==== e(   5) =     8.13055 eV ==== 
     psi = 0.279*[#   1]+0.279*[#   5]+0.058*[#   2]+0.058*[#   3]+0.058*[#   4]+
          +0.058*[#   6]+0.058*[#   7]+0.058*[#   8]+
    |psi|^2 = 0.903
==== e(   6) =     9.28568 eV ==== 
     psi = 0.125*[#   2]+0.125*[#   3]+0.125*[#   4]+0.125*[#   6]+0.125*[#   7]+
          +0.125*[#   8]+0.003*[#   1]+0.003*[#   5]+
    |psi|^2 = 0.756
==== e(   7) =     9.80007 eV ==== 
     psi = 0.125*[#   2]+0.125*[#   3]+0.125*[#   4]+0.125*[#   6]+0.125*[#   7]+
          +0.125*[#   8]+0.007*[#   1]+0.007*[#   5]+
    |psi|^2 = 0.762
==== e(   8) =    13.96015 eV ==== 
     psi = 0.036*[#   2]+0.036*[#   3]+0.036*[#   4]+0.036*[#   6]+0.036*[#   7]+
          +0.036*[#   8]+0.034*[#   1]+0.034*[#   5]+
    |psi|^2 = 0.287

 k =   0.5500000000  0.5000000000  0.4500000000
==== e(   1) =    -3.50289 eV ==== 
     psi = 0.381*[#   1]+0.381*[#   5]+0.039*[#   2]+0.039*[#   3]+0.039*[#   4]+
          +0.039*[#   6]+0.039*[#   7]+0.039*[#   8]+
    |psi|^2 = 0.996
==== e(   2) =    -0.90985 eV ==== 
     psi = 0.126*[#   2]+0.126*[#   3]+0.126*[#   4]+0.126*[#   6]+0.126*[#   7]+
          +0.126*[#   8]+0.115*[#   1]+0.115*[#   5]+
    |psi|^2 = 0.987
==== e(   3) =     4.66308 eV ==== 
     psi = 0.158*[#   2]+0.158*[#   3]+0.158*[#   4]+0.158*[#   6]+0.158*[#   7]+
          +0.158*[#   8]+0.020*[#   1]+0.020*[#   5]+
    |psi|^2 = 0.988
==== e(   4) =     4.81963 eV ==== 
     psi = 0.165*[#   2]+0.165*[#   3]+0.165*[#   4]+0.165*[#   6]+0.165*[#   7]+
          +0.165*[#   8]+
    |psi|^2 = 0.988
==== e(   5) =     7.74591 eV ==== 
     psi = 0.322*[#   1]+0.322*[#   5]+0.045*[#   2]+0.045*[#   3]+0.045*[#   4]+
          +0.045*[#   6]+0.045*[#   7]+0.045*[#   8]+
    |psi|^2 = 0.916
==== e(   6) =     9.37830 eV ==== 
     psi = 0.128*[#   2]+0.128*[#   3]+0.128*[#   4]+0.128*[#   6]+0.128*[#   7]+
          +0.128*[#   8]+
    |psi|^2 = 0.768
==== e(   7) =     9.50752 eV ==== 
     psi = 0.128*[#   2]+0.128*[#   3]+0.128*[#   4]+0.128*[#   6]+0.128*[#   7]+
          +0.128*[#   8]+
    |psi|^2 = 0.770
==== e(   8) =    13.72785 eV ==== 
     psi = 0.026*[#   2]+0.026*[#   3]+0.026*[#   4]+0.026*[#   6]+0.026*[#   7]+
          +0.026*[#   8]+0.023*[#   1]+0.023*[#   5]+
    |psi|^2 = 0.202

 k =   0.5000000000  0.5000000000  0.5000000000
==== e(   1) =    -3.52428 eV ==== 
     psi = 0.383*[#   1]+0.383*[#   5]+0.038*[#   2]+0.038*[#   3]+0.038*[#   4]+
          +0.038*[#   6]+0.038*[#   7]+0.038*[#   8]+
    |psi|^2 = 0.996
==== e(   2) =    -0.92201 eV ==== 
     psi = 0.127*[#   2]+0.127*[#   3]+0.127*[#   4]+0.127*[#   6]+0.127*[#   7]+
          +0.127*[#   8]+0.114*[#   1]+0.114*[#   5]+
    |psi|^2 = 0.987
==== e(   3) =     4.86118 eV ==== 
     psi = 0.165*[#   2]+0.165*[#   3]+0.165*[#   4]+0.165*[#   6]+0.165*[#   7]+
          +0.165*[#   8]+
    |psi|^2 = 0.988
==== e(   4) =     4.86118 eV ==== 
     psi = 0.165*[#   2]+0.165*[#   3]+0.165*[#   4]+0.165*[#   6]+0.165*[#   7]+
          +0.165*[#   8]+
    |psi|^2 = 0.988
==== e(   5) =     7.56597 eV ==== 
     psi = 0.345*[#   1]+0.345*[#   5]+0.038*[#   2]+0.038*[#   3]+0.038*[#   4]+
          +0.038*[#   6]+0.038*[#   7]+0.038*[#   8]+
    |psi|^2 = 0.919
==== e(   6) =     9.41913 eV ==== 
     psi = 0.129*[#   2]+0.129*[#   3]+0.129*[#   4]+0.129*[#   6]+0.129*[#   7]+
          +0.129*[#   8]+
    |psi|^2 = 0.773
==== e(   7) =     9.41913 eV ==== 
     psi = 0.129*[#   2]+0.129*[#   3]+0.129*[#   4]+0.129*[#   6]+0.129*[#   7]+
          +0.129*[#   8]+
    |psi|^2 = 0.773
==== e(   8) =    13.62613 eV ==== 
     psi = 0.023*[#   2]+0.023*[#   3]+0.023*[#   4]+0.023*[#   6]+0.023*[#   7]+
          +0.023*[#   8]+0.020*[#   1]+0.020*[#   5]+
    |psi|^2 = 0.177

Lowdin Charges: 

     Atom #   1: total charge =   3.9613, s =  1.1329, p =  2.8284, 
     Atom #   2: total charge =   3.9613, s =  1.1329, p =  2.8284, 
     Spilling Parameter:   0.0097
